2
Lattice="2.9626550996431766 2.5924423814796874e-18 -1.6872684960538585e-34 -1.4813275498215877 2.565734578942509 -1.0535023826409118e-35 -2.6888957920549025e-34 -1.7103476426341302e-34 4.734621788679278" Properties=species:S:1:pos:R:3:Z:I:1:forces:R:3 stress="7.516736205284537e-05 2.0328790734103208e-20 3.8658729817120045e-38 2.0328790734103208e-20 7.516736205284527e-05 -1.0476518624075343e-35 3.8658729817120045e-38 -1.0476518624075343e-35 7.113046596402701e-05" energy=-12.1228833051 Minim_Constant_Volume=T Minim_Hydrostatic_Strain=F pbc="T T T"
Ti      -0.00000000      -0.00000000      -0.00000000       22       0.00000000      -0.00000000       0.00000000 
Ti       0.00000000       1.71048972       2.36731089       22      -0.00000000       0.00000000       0.00000000 
2
Lattice="2.9285929773643318 -1.139687778411464e-17 8.24935569099141e-34 -1.4642964886821652 2.536235915742217 4.663606769628127e-35 1.3215769203109082e-33 8.528593686579523e-34 4.724125520202383" Properties=species:S:1:pos:R:3:Z:I:1:forces:R:3 stress="-0.012719136411531665 4.336808689942018e-18 -1.15284965622738e-33 4.336808689942018e-18 -0.012719136411531657 -1.9723394935998988e-33 -1.15284965622738e-33 -1.9723394935998988e-33 -0.012717313298612127" energy=-12.1170936049 Minim_Constant_Volume=T Minim_Hydrostatic_Strain=F pbc="T T T"
Ti       0.00000000      -0.00000000      -0.00000000       22       0.00000000      -0.00000000       0.00000000 
Ti       0.00000000       1.69082394       2.36206276       22      -0.00000000       0.00000000       0.00000000 
2
Lattice="2.889648971055222 -1.1245323749887543e-17 5.2098577088929e-34 -1.4448244855276102 2.5025094169533864 1.624750723676556e-33 8.126871093978415e-34 3.4972696115763634e-33 4.727721713768658" Properties=species:S:1:pos:R:3:Z:I:1:forces:R:3 stress="-0.019149372383161972 1.0408340855860843e-17 5.98642076213707e-34 1.0408340855860843e-17 -0.01914937238316197 2.431798592761732e-33 5.98642076213707e-34 2.431798592761732e-33 -0.01914233557620068" energy=-12.101510127 Minim_Constant_Volume=T Minim_Hydrostatic_Strain=F pbc="T T T"
Ti       0.00000000      -0.00000000      -0.00000000       22      -0.00000000       0.00000000       0.00000000 
Ti       0.00000000       1.66833961       2.36386086       22       0.00000000      -0.00000000      -0.00000000 
2
Lattice="2.849425709130551 -1.509242742310508e-18 1.2143698000991823e-34 -1.4247128545652747 2.467675050303546 1.6401003022551893e-33 1.4652188281109498e-34 3.095345933794034e-33 4.734131180075058" Properties=species:S:1:pos:R:3:Z:I:1:forces:R:3 stress="-0.020545199623456804 3.469446951953614e-18 -3.0803862266156413e-33 3.469446951953614e-18 -0.02054519962345678 9.784818894116656e-34 -3.0803862266156413e-33 9.784818894116656e-34 -0.0205323000509197" energy=-12.0851925443 Minim_Constant_Volume=T Minim_Hydrostatic_Strain=F pbc="T T T"
Ti       0.00000000      -0.00000000      -0.00000000       22      -0.00000000       0.00000000       0.00000000 
Ti       0.00000000       1.64511670       2.36706559       22       0.00000000      -0.00000000      -0.00000000 
2
Lattice="2.8121882299149656 4.218998711899355e-17 3.043811465978662e-34 -1.4060941149574822 2.435426447329954 -1.2086309194865295e-33 4.487703387110464e-34 -2.231335275911981e-33 4.729116701822717" Properties=species:S:1:pos:R:3:Z:I:1:forces:R:3 stress="-0.029827077747061205 1.734723475976807e-17 -2.3867253444314118e-33 1.734723475976807e-17 -0.029827077747061205 -5.507578795068638e-33 -2.3867253444314118e-33 -5.507578795068638e-33 -0.030000016324511252" energy=-12.0623631555 Minim_Constant_Volume=T Minim_Hydrostatic_Strain=F pbc="T T T"
Ti       0.00000000      -0.00000000      -0.00000000       22       0.00000000       0.00000000      -0.00000000 
Ti      -0.00000000       1.62361763       2.36455835       22       0.00000000      -0.00000000       0.00000000 
2
Lattice="2.7768872830047893 -1.2522907353256436e-17 -2.8965582625669576e-33 -1.388443641502394 2.4048549305280953 -1.8245958253570358e-33 -4.938246465593824e-33 -6.513121761502529e-33 4.715473321042612" Properties=species:S:1:pos:R:3:Z:I:1:forces:R:3 stress="-0.05159126323899256 6.938893903907228e-18 -5.199644904715505e-34 6.938893903907228e-18 -0.051591263238992525 -1.3312323621060445e-33 -5.199644904715505e-34 -1.3312323621060445e-33 -0.05154960568631534" energy=-12.0282117346 Minim_Constant_Volume=T Minim_Hydrostatic_Strain=F pbc="T T T"
Ti       0.00000000      -0.00000000      -0.00000000       22      -0.00000000       0.00000000       0.00000000 
Ti      -0.00000000       1.60323662       2.35773666       22       0.00000000      -0.00000000      -0.00000000 
2
Lattice="3.004224028301181 2.5903235158356757e-17 -2.432781347482972e-35 -1.50211201415059 2.601734327168444 -1.261984015687206e-32 -3.936499461423657e-35 -2.3307451772406484e-32 4.719169810062304" Properties=species:S:1:pos:R:3:Z:I:1:forces:R:3 stress="0.007220154611301679 -8.673617379884035e-19 -1.3795009707576223e-34 -8.673617379884035e-19 0.007220154611301669 -3.6911953991285648e-34 -1.3795009707576223e-34 -3.6911953991285648e-34 0.007337093451155762" energy=-12.1185680485 Minim_Constant_Volume=T Minim_Hydrostatic_Strain=F pbc="T T T"
Ti      -0.00000000      -0.00000000      -0.00000000       22      -0.00000000       0.00000000      -0.00000000 
Ti       0.00000000       1.73448955       2.35958491       22       0.00000000      -0.00000000       0.00000000 
2
Lattice="3.0469517089133062 8.075215448611432e-17 6.534020106392286e-33 -1.5234758544566525 2.6387375840233322 -1.5408618526943126e-32 1.0262063333165027e-32 -2.2844638274235645e-32 4.699561625043977" Properties=species:S:1:pos:R:3:Z:I:1:forces:R:3 stress="0.0162028945586214 -6.938893903907228e-18 -2.069096259434348e-34 -6.938893903907228e-18 0.01620289455862139 -1.4014709633088377e-33 -2.069096259434348e-34 -1.4014709633088377e-33 0.01617358951625202" energy=-12.1081809811 Minim_Constant_Volume=T Minim_Hydrostatic_Strain=F pbc="T T T"
Ti      -0.00000000      -0.00000000      -0.00000000       22       0.00000000      -0.00000000       0.00000000 
Ti       0.00000000       1.75915839       2.34978081       22      -0.00000000      -0.00000000       0.00000000 
2
Lattice="3.0973205945933215 1.0606984884245205e-16 1.5935401680016226e-32 -1.54866029729666 2.6823583185825393 -8.178841464531481e-34 2.502621453849147e-32 1.0933846876645724e-32 4.655730265422697" Properties=species:S:1:pos:R:3:Z:I:1:forces:R:3 stress="0.023537369641855464 -1.0408340855860843e-17 -9.998149913621585e-34 -1.0408340855860843e-17 0.023537369641855446 -4.264759597226474e-33 -9.998149913621585e-34 -4.264759597226474e-33 0.023426790833279" energy=-12.0901244023 Minim_Constant_Volume=T Minim_Hydrostatic_Strain=F pbc="T T T"
Ti      -0.00000000       0.00000000      -0.00000000       22      -0.00000000      -0.00000000      -0.00000000 
Ti       0.00000000       1.78823888       2.32786513       22       0.00000000       0.00000000       0.00000000 
2
Lattice="3.1703549552811676 4.881416281353376e-16 1.1850744385138884e-32 -1.5851774776405827 2.745607930287371 4.0553511758950623e-32 2.004799884014639e-32 7.975064706492551e-32 4.544646839907775" Properties=species:S:1:pos:R:3:Z:I:1:forces:R:3 stress="0.02443244240229004 -8.673617379884035e-18 1.925494974555494e-34 -8.673617379884035e-18 0.024432442402290002 1.6058275351506257e-33 1.925494974555494e-34 1.6058275351506257e-33 0.024358407138263063" energy=-12.0680890858 Minim_Constant_Volume=T Minim_Hydrostatic_Strain=F pbc="T T T"
Ti      -0.00000000       0.00000000      -0.00000000       22      -0.00000000       0.00000000      -0.00000000 
Ti       0.00000000       1.83040529       2.27232342       22       0.00000000      -0.00000000       0.00000000 
2
Lattice="3.2915955824686205 8.7137138585414195e-16 -5.989294826474451e-32 -1.6457977912343087 2.8506053934024633 -9.206956526934676e-32 -8.112530319591619e-32 -1.920085773965772e-31 4.302988207663842" Properties=species:S:1:pos:R:3:Z:I:1:forces:R:3 stress="0.02272643615529882 -1.734723475976807e-17 5.82845547672353e-34 -1.734723475976807e-17 0.022726436155298794 1.2377584104751714e-33 5.82845547672353e-34 1.2377584104751714e-33 0.02283214299183302" energy=-12.0505936384 Minim_Constant_Volume=T Minim_Hydrostatic_Strain=F pbc="T T T"
Ti      -0.00000000       0.00000000      -0.00000000       22      -0.00000000       0.00000000      -0.00000000 
Ti       0.00000000       1.90040360       2.15149410       22       0.00000000      -0.00000000      -0.00000000 
2
Lattice="3.325970011522656 1.7699089941240441e-15 -9.569964682780974e-32 -1.6629850057613258 2.8803745222038444 -1.1822904079195249e-31 -1.2846836869448088e-31 -2.597903050250838e-31 4.320189104024576" Properties=species:S:1:pos:R:3:Z:I:1:forces:R:3 stress="0.05320446723313306 -5.551115123125783e-17 5.408239780718213e-33 -5.551115123125783e-17 0.053204467233132935 7.607493878488051e-33 5.408239780718213e-33 7.607493878488051e-33 0.05330458057225458" energy=-12.0125663708 Minim_Constant_Volume=T Minim_Hydrostatic_Strain=F pbc="T T T"
Ti       0.00000000      -0.00000000      -0.00000000       22       0.00000000      -0.00000000       0.00000000 
Ti       0.00000000       1.92024968       2.16009455       22       0.00000000      -0.00000000       0.00000000 
