4
Lattice="1.9193831017808074 -3.324469053084449 0.0 1.9193831017808074 3.324469053084449 0.0 0.0 0.0 6.268678975816093" Properties=species:S:1:pos:R:3:Z:I:1:forces:R:3 stress="-0.005827595901004777 -5.413277046712861e-19 1.0244311197638424e-33 -5.413277046712861e-19 -0.005827595895357004 9.85759304125469e-34 1.0244311197638424e-33 9.85759304125469e-34 -0.02113563248124404" cutoff=-1.0 energy=-652.662166233 nneightol=1.2 pbc="T T T"
Si       1.91938310       1.10815635       0.39179244       14       0.00000000       0.00000000      -0.12071844 
Si       1.91938310      -1.10815635       3.52613192       14       0.00000000      -0.00000000      -0.12071844 
Si       1.91938310       1.10815635       2.74254705       14      -0.00000000       0.00000000       0.12071844 
Si       1.91938310      -1.10815635      -0.39179244       14      -0.00000000      -0.00000000       0.12071844 
4
Lattice="1.922970355987678 -3.3306823596274033 4.204014721735272e-34 1.922970355987678 3.3306823596274033 -1.6816058886941084e-33 -2.059538192952123e-33 -1.9817915492183854e-33 6.311170502564476" Properties=species:S:1:pos:R:3:Z:I:1:forces:R:3 stress="-0.003524622184277187 1.704809274290762e-19 7.601292101011414e-36 1.704809274290762e-19 -0.0035246221808740686 -1.2676898785847593e-36 7.601292101011414e-36 -1.2676898785847593e-36 -0.004979404455752476" cutoff=-1.0 energy=-652.670448359 nneightol=1.2 pbc="T T T"
Si       1.92297036       1.11022745       0.38670414       14      -0.00000000       0.00000000       0.12449945 
Si       1.92297036      -1.11022745       3.54228938       14      -0.00000000      -0.00000000       0.12449945 
Si       1.92297036       1.11022745       2.76888112       14       0.00000000       0.00000000      -0.12449945 
Si       1.92297036      -1.11022745      -0.38670414       14       0.00000000      -0.00000000      -0.12449945 
4
Lattice="1.9268570924930442 -3.3374143847270834 6.9230860097915575e-34 1.9268570924930442 3.3374143847270834 -2.788546032785148e-33 -3.423760432557362e-33 -3.282436081768255e-33 6.346137742712876" Properties=species:S:1:pos:R:3:Z:I:1:forces:R:3 stress="0.0026090381044422783 5.684053910227418e-20 -5.377171957200182e-33 5.684053910227418e-20 0.0026090381019333348 -3.957131053437109e-37 -5.377171957200182e-33 -3.957131053437109e-37 0.0008776503706315442" cutoff=-1.0 energy=-652.672839775 nneightol=1.2 pbc="T T T"
Si       1.92685709       1.11247146       0.39709648       14      -0.00000000      -0.00000000      -0.04353209 
Si       1.92685709      -1.11247146       3.57016535       14       0.00000000       0.00000000      -0.04353209 
Si       1.92685709       1.11247146       2.77597239       14      -0.00000000      -0.00000000       0.04353209 
Si       1.92685709      -1.11247146      -0.39709648       14       0.00000000       0.00000000       0.04353209 
4
Lattice="1.9255429547400655 -3.3351382313718694 1.8678371967766686e-33 1.9255429547400655 3.3351382313718694 -1.2604324317226114e-33 9.565920325429614e-34 -2.9506496665068117e-33 6.337851967722919" Properties=species:S:1:pos:R:3:Z:I:1:forces:R:3 stress="0.000840811454663269 2.612155908634561e-19 -2.6935430063229035e-33 2.612155908634561e-19 0.0008408114538536147 -2.4272707618945226e-21 -2.6935430063229035e-33 -2.4272707618945226e-21 -0.0005037885353120054" cutoff=-1.0 energy=-652.67322627 nneightol=1.2 pbc="T T T"
Si       1.92554295       1.11171274       0.39450661       14      -0.00000000       0.00000000       0.00150064 
Si       1.92554295      -1.11171274       3.56343259       14       0.00000000      -0.00000000       0.00150064 
Si       1.92554295       1.11171274       2.77441938       14      -0.00000000       0.00000000      -0.00150064 
Si       1.92554295      -1.11171274      -0.39450661       14      -0.00000000      -0.00000000      -0.00150064 
4
Lattice="1.9252230879490375 -3.334584205838418 -1.4745087509747283e-21 1.9252230879490375 3.334584205838418 1.4745087509772973e-21 4.135212037542409e-33 2.758840371153066e-21 6.338334633551192" Properties=species:S:1:pos:R:3:Z:I:1:forces:R:3 stress="0.0005936751648904178 -1.7500000267495637e-19 1.077360539830184e-32 -1.7500000267495637e-19 0.0005936751643185527 9.454573376974256e-21 1.077360539830184e-32 9.454573376974256e-21 -0.00045498213267671487" cutoff=-1.0 energy=-652.673249115 nneightol=1.2 pbc="T T T"
Si       1.92522309       1.11152807       0.39460328       14       0.00000000       0.00000000       0.00217912 
Si       1.92522309      -1.11152807       3.56377059       14      -0.00000000       0.00000000       0.00217912 
Si       1.92522309       1.11152807       2.77456405       14       0.00000000      -0.00000000      -0.00217912 
Si       1.92522309      -1.11152807      -0.39460328       14      -0.00000000      -0.00000000      -0.00217912 
4
Lattice="1.9243223351931595 -3.333024056300919 1.9565708239732686e-20 1.9243223351931595 3.333024056300919 -1.9565708239757464e-20 -4.0168291356115375e-32 -3.6596168046694857e-20 6.3411657985198495" Properties=species:S:1:pos:R:3:Z:I:1:forces:R:3 stress="-1.4381575156823398e-05 -3.347509410761417e-21 1.0776033124170714e-32 -3.347509410761417e-21 -1.4381575142957308e-05 4.393121770106733e-21 1.0776033124170714e-32 4.393121770106733e-21 -4.3357545378835116e-05" cutoff=-1.0 energy=-652.67328248 nneightol=1.2 pbc="T T T"
Si       1.92432234       1.11100802       0.39520384       14       0.00000000      -0.00000000       0.00047318 
Si       1.92432234      -1.11100802       3.56578673       14      -0.00000000      -0.00000000       0.00047318 
Si       1.92432234       1.11100802       2.77537906       14      -0.00000000       0.00000000      -0.00047318 
Si       1.92432234      -1.11100802      -0.39520384       14       0.00000000       0.00000000      -0.00047318 
