4
Lattice="1.9243223351931595 -3.333024056300919 1.9565708239732686e-20 1.9243223351931595 3.333024056300919 -1.9565708239757464e-20 -4.0168291356115375e-32 -3.6596168046694857e-20 6.3411657985198495" Properties=species:S:1:pos:R:3:Z:I:1:forces:R:3 cutoff=-1.0 stress="-1.4381575156823398e-05 -3.347509410761417e-21 1.0776033124170714e-32 -3.347509410761417e-21 -1.4381575142957308e-05 4.393121770106733e-21 1.0776033124170714e-32 4.393121770106733e-21 -4.3357545378835116e-05" Minim_Constant_Volume=T nneightol=1.2 pbc="T T T" energy=-652.67328248 Minim_Hydrostatic_Strain=F
Si       1.92432234       1.11100802       0.39520384       14       0.00000000      -0.00000000       0.00047318 
Si       1.92432234      -1.11100802       3.56578673       14      -0.00000000      -0.00000000       0.00047318 
Si       1.92432234       1.11100802       2.77537906       14      -0.00000000       0.00000000      -0.00047318 
Si       1.92432234      -1.11100802      -0.39520384       14       0.00000000       0.00000000      -0.00047318 
4
Lattice="1.9073143475657375 -3.3035653575277033 -3.540722484015199e-18 1.9073143475657375 3.3035653575277033 3.540722484015168e-18 -5.054427515136648e-32 6.729838358399613e-18 6.293388248960278" Properties=species:S:1:pos:R:3:Z:I:1:forces:R:3 cutoff=-1.0 stress="-0.01630284412775932 3.6171387011174563e-19 5.833724268453766e-34 3.6171387011174563e-19 -0.016302844112571987 -7.688683023045859e-35 5.833724268453766e-34 -7.688683023045859e-35 -0.016338128658641145" Minim_Constant_Volume=T nneightol=1.2 pbc="T T T" energy=-652.657013589 Minim_Hydrostatic_Strain=F
Si       1.90731435       1.10118845       0.39299293       14       0.00000000       0.00000000       0.00058488 
Si       1.90731435      -1.10118845       3.53968705       14      -0.00000000       0.00000000       0.00058488 
Si       1.90731435       1.10118845       2.75370120       14       0.00000000      -0.00000000      -0.00058488 
Si       1.90731435      -1.10118845      -0.39299293       14      -0.00000000      -0.00000000      -0.00058488 
4
Lattice="1.8896310975653026 -3.2729370699328615 -3.879704965421754e-17 1.8896310975653026 3.2729370699328615 3.8797049654217445e-17 -1.613835349277977e-31 7.387932673855829e-17 6.247317647387207" Properties=species:S:1:pos:R:3:Z:I:1:forces:R:3 cutoff=-1.0 stress="-0.03453563162083875 -2.1812558262992466e-18 4.678651538984126e-33 -2.1812558262992466e-18 -0.03453563159155485 -1.2383205895281424e-34 4.678651538984126e-33 -1.2383205895281424e-34 -0.03452870148135488" Minim_Constant_Volume=T nneightol=1.2 pbc="T T T" energy=-652.605637755 Minim_Hydrostatic_Strain=F
Si       1.88963110       1.09097902       0.39154202       14      -0.00000000       0.00000000       0.00007904 
Si       1.88963110      -1.09097902       3.51520084       14       0.00000000       0.00000000       0.00007904 
Si       1.88963110       1.09097902       2.73211681       14       0.00000000      -0.00000000      -0.00007904 
Si       1.88963110      -1.09097902      -0.39154202       14       0.00000000      -0.00000000      -0.00007904 
4
Lattice="1.8713298447965887 -3.2412383700929497 1.9501908126433674e-16 1.8713298447965887 3.2412383700929497 -1.9501908126433694e-16 -2.973240351991023e-31 -3.723871968004601e-16 6.202469709117014" Properties=species:S:1:pos:R:3:Z:I:1:forces:R:3 cutoff=-1.0 stress="-0.05481825343248407 -1.0404223113863493e-17 1.4538057021779912e-32 -1.0404223113863493e-17 -0.054818253392391506 9.374887972628744e-17 1.4538057021779912e-32 9.374887972628744e-17 -0.054809212266220306" Minim_Constant_Volume=T nneightol=1.2 pbc="T T T" energy=-652.515170703 Minim_Hydrostatic_Strain=F
Si       1.87132984       1.08041279       0.39072906       14       0.00000000      -0.00000000       0.00010040 
Si       1.87132984      -1.08041279       3.49196391       14       0.00000000      -0.00000000       0.00010040 
Si       1.87132984       1.08041279       2.71050580       14      -0.00000000       0.00000000      -0.00010040 
Si       1.87132984      -1.08041279      -0.39072906       14      -0.00000000       0.00000000      -0.00010040 
4
Lattice="1.8524616896980888 -3.2085577666045886 -1.4159738763633794e-16 1.8524616896980888 3.2085577666045886 1.4159738763633765e-16 -4.52250738682251e-31 2.7278026155462526e-16 6.158390421342755" Properties=species:S:1:pos:R:3:Z:I:1:forces:R:3 cutoff=-1.0 stress="-0.07768936996531957 -2.4577069201897454e-17 4.8871876235320564e-32 -2.4577069201897454e-17 -0.07768936991821981 2.316880662930838e-32 4.8871876235320564e-32 2.316880662930838e-32 -0.0776912597328773" Minim_Constant_Volume=T nneightol=1.2 pbc="T T T" energy=-652.380936882 Minim_Hydrostatic_Strain=F
Si       1.85246169       1.06951926       0.39046199       14      -0.00000000      -0.00000000      -0.00007169 
Si       1.85246169      -1.06951926       3.46965720       14      -0.00000000      -0.00000000      -0.00007169 
Si       1.85246169       1.06951926       2.68873323       14      -0.00000000       0.00000000       0.00007169 
Si       1.85246169      -1.06951926      -0.39046199       14       0.00000000       0.00000000       0.00007169 
4
Lattice="1.8330817878712877 -3.17499079176181 -1.0997349620656544e-16 1.8330817878712877 3.1749907917618105 1.09973496206565e-16 -6.877027344597676e-31 2.117518838989472e-16 6.114587806971484" Properties=species:S:1:pos:R:3:Z:I:1:forces:R:3 cutoff=-1.0 stress="-0.10386241245585327 3.3854246969894344e-17 5.785944587932776e-32 3.3854246969894344e-17 -0.10386241240746827 7.194665239332385e-18 5.785944587932776e-32 7.194665239332385e-18 -0.10387167096627013" Minim_Constant_Volume=T nneightol=1.2 pbc="T T T" energy=-652.196945589 Minim_Hydrostatic_Strain=F
Si       1.83308179       1.05833026       0.39061480       14      -0.00000000      -0.00000000      -0.00026751 
Si       1.83308179      -1.05833026       3.44790870       14       0.00000000      -0.00000000      -0.00026751 
Si       1.83308179       1.05833026       2.66667910       14       0.00000000       0.00000000       0.00026751 
Si       1.83308179      -1.05833026      -0.39061480       14       0.00000000       0.00000000       0.00026751 
4
Lattice="1.9407829062623612 -3.3615346017761882 4.583134637026937e-18 1.9407829062623612 3.3615346017761882 -4.583134637026982e-18 -7.373398289503079e-32 -8.724380772917543e-18 6.389907672720279" Properties=species:S:1:pos:R:3:Z:I:1:forces:R:3 cutoff=-1.0 stress="0.014052809055237248 -4.533036089997e-19 -1.299286822476107e-33 -4.533036089997e-19 0.014052809041286233 4.207318120179222e-18 -1.299286822476107e-33 4.207318120179222e-18 0.014096883998713623" Minim_Constant_Volume=T nneightol=1.2 pbc="T T T" energy=-652.658593078 Minim_Hydrostatic_Strain=F
Si       1.94078291       1.12051153       0.39796723       14       0.00000000      -0.00000000       0.00035916 
Si       1.94078291      -1.12051153       3.59292106       14       0.00000000      -0.00000000       0.00035916 
Si       1.94078291       1.12051153       2.79698661       14       0.00000000       0.00000000      -0.00035916 
Si       1.94078291      -1.12051153      -0.39796723       14      -0.00000000       0.00000000      -0.00035916 
4
Lattice="1.9557447321294394 -3.38744924448585 4.6233583577677916e-18 1.9557447321294394 3.38744924448585 -4.623358357767857e-18 -1.0721636239210738e-31 -8.79163851004561e-18 6.445988473775292" Properties=species:S:1:pos:R:3:Z:I:1:forces:R:3 cutoff=-1.0 stress="0.02492096242765338 -7.126041321496347e-18 -1.8136716435778756e-33 -7.126041321496347e-18 0.024920962401132268 6.68360106947751e-18 -1.8136716435778756e-33 6.68360106947751e-18 0.024924963742005927" Minim_Constant_Volume=T nneightol=1.2 pbc="T T T" energy=-652.618304273 Minim_Hydrostatic_Strain=F
Si       1.95574473       1.12914975       0.40297222       14       0.00000000      -0.00000000       0.00015492 
Si       1.95574473      -1.12914975       3.62596646       14       0.00000000      -0.00000000       0.00015492 
Si       1.95574473       1.12914975       2.82002202       14      -0.00000000       0.00000000      -0.00015492 
Si       1.95574473      -1.12914975      -0.40297222       14      -0.00000000       0.00000000      -0.00015492 
4
Lattice="1.9705357220527666 -3.4130679907089037 -6.634807367960173e-18 1.9705357220527666 3.4130679907089037 6.634807367960141e-18 -5.046289122958332e-32 1.2654152885640486e-17 6.500764755823636" Properties=species:S:1:pos:R:3:Z:I:1:forces:R:3 cutoff=-1.0 stress="0.03274569791103761 -3.782882896827187e-18 -2.7329585918887216e-33 -3.782882896827187e-18 0.03274569787296608 -4.070523210940276e-34 -2.7329585918887216e-33 -4.070523210940276e-34 0.03275132034088554" Minim_Constant_Volume=T nneightol=1.2 pbc="T T T" energy=-652.559176052 Minim_Hydrostatic_Strain=F
Si       1.97053572       1.13768933       0.40804425       14       0.00000000       0.00000000       0.00023162 
Si       1.97053572      -1.13768933       3.65842663       14       0.00000000       0.00000000       0.00023162 
Si       1.97053572       1.13768933       2.84233813       14      -0.00000000      -0.00000000      -0.00023162 
Si       1.97053572      -1.13768933      -0.40804425       14      -0.00000000      -0.00000000      -0.00023162 
4
Lattice="1.9858162270970037 -3.4395346018683095 -1.8150576146285727e-18 1.9858162270970037 3.4395346018683095 1.815057614628545e-18 -4.3845296069882546e-32 3.476599122640003e-18 6.5499701327139634" Properties=species:S:1:pos:R:3:Z:I:1:forces:R:3 cutoff=-1.0 stress="0.037578296269044686 -7.825296940796375e-18 -4.9207827061146765e-33 -7.825296940796375e-18 0.03757829622443485 8.413355093481136e-18 -4.9207827061146765e-33 8.413355093481136e-18 0.03755497186235546" Minim_Constant_Volume=T nneightol=1.2 pbc="T T T" energy=-652.487158503 Minim_Hydrostatic_Strain=F
Si       1.98581623       1.14651153       0.41220810       14      -0.00000000       0.00000000       0.00020300 
Si       1.98581623      -1.14651153       3.68719316       14       0.00000000       0.00000000       0.00020300 
Si       1.98581623       1.14651153       2.86277698       14       0.00000000      -0.00000000      -0.00020300 
Si       1.98581623      -1.14651153      -0.41220810       14       0.00000000      -0.00000000      -0.00020300 
4
Lattice="2.0020770828219194 -3.4676992304060557 3.9963956045047246e-17 2.0020770828219194 3.467699230406055 -3.9963956045047246e-17 -6.687218789410128e-33 -7.610163195702054e-17 6.590447616049055" Properties=species:S:1:pos:R:3:Z:I:1:forces:R:3 cutoff=-1.0 stress="0.040168330655754036 -4.586939026075362e-18 1.0517395293113541e-33 -4.586939026075362e-18 0.040168330602719654 5.247648417127183e-19 1.0517395293113541e-33 5.247648417127183e-19 0.040176143753235534" Minim_Constant_Volume=T nneightol=1.2 pbc="T T T" energy=-652.407799351 Minim_Hydrostatic_Strain=F
Si       2.00207708       1.15589974       0.41517153       14       0.00000000      -0.00000000       0.00014677 
Si       2.00207708      -1.15589974       3.71039533       14      -0.00000000      -0.00000000       0.00014677 
Si       2.00207708       1.15589974       2.88005228       14      -0.00000000       0.00000000      -0.00014677 
Si       2.00207708      -1.15589974      -0.41517153       14       0.00000000       0.00000000      -0.00014677 
4
Lattice="2.018093448902893 -3.4954403905096103 3.343017750976427e-17 2.018093448902893 3.49544039050961 -3.343017750976425e-17 2.2769948777466757e-32 -6.381877779336309e-17 6.630393493260168" Properties=species:S:1:pos:R:3:Z:I:1:forces:R:3 cutoff=-1.0 stress="0.041517623396259806 -3.224631582325372e-19 -1.6801834464934473e-32 -3.224631582325372e-19 0.04151762333478363 -5.384600089927012e-18 -1.6801834464934473e-32 -5.384600089927012e-18 0.041524403578512344" Minim_Constant_Volume=T nneightol=1.2 pbc="T T T" energy=-652.324553117 Minim_Hydrostatic_Strain=F
Si       2.01809345       1.16514680       0.41848045       14       0.00000000      -0.00000000       0.00014222 
Si       2.01809345      -1.16514680       3.73367719       14       0.00000000      -0.00000000       0.00014222 
Si       2.01809345       1.16514680       2.89671630       14      -0.00000000       0.00000000      -0.00014222 
Si       2.01809345      -1.16514680      -0.41848045       14      -0.00000000       0.00000000      -0.00014222 
