1
Lattice="2.6598684491463276 8.65425045913371e-18 0.0 1.3299342245731638 2.3035136476854365 0.0 0.0 0.0 2.475296895074667" Properties=species:S:1:pos:R:3:Z:I:1:forces:R:3 stress="5.024157929985796e-05 -1.3552527156068805e-20 4.4658338265629055e-36 -1.3552527156068805e-20 5.024157929985798e-05 -2.5783503619222318e-36 4.4658338265629055e-36 -2.5783503619222318e-36 -1.7617930345445326e-05" energy=-162.834529382 Minim_Constant_Volume=T Minim_Hydrostatic_Strain=F pbc="T T T"
Si       0.00000000       0.00000000       0.00000000       14       0.00000000       0.00000000       0.00000000 
1
Lattice="2.6377596421671354 3.2793535475634385e-18 7.778820796969439e-37 1.3188798210835677 2.2843668591940895 -1.6704779438076223e-52 7.239038822487806e-37 -4.1794610128374895e-37 2.454040801082865" Properties=species:S:1:pos:R:3:Z:I:1:forces:R:3 stress="-0.015631312356487854 5.204170427930421e-18 9.194250635142903e-39 5.204170427930421e-18 -0.015631312356487865 -5.2962624451651163e-39 9.194250635142903e-39 -5.2962624451651163e-39 -0.01555927562645329" energy=-162.831692036 Minim_Constant_Volume=T Minim_Hydrostatic_Strain=F pbc="T T T"
Si       0.00000000       0.00000000       0.00000000       14       0.00000000       0.00000000       0.00000000 
1
Lattice="2.6132624938925226 -2.3691907973076772e-18 -1.283687128489589e-34 1.3066312469462613 2.2631517064680007 -1.3071979459575637e-34 -1.1942913325887205e-34 -7.147671350832615e-35 2.436152997405959" Properties=species:S:1:pos:R:3:Z:I:1:forces:R:3 stress="-0.034993670485741236 -2.42861286636753e-17 -5.4723750879870964e-36 -2.42861286636753e-17 -0.03499367048574125 3.828806886145507e-36 -5.4723750879870964e-36 3.828806886145507e-36 -0.034985424506561905" energy=-162.822218588 Minim_Constant_Volume=T Minim_Hydrostatic_Strain=F pbc="T T T"
Si       0.00000000       0.00000000       0.00000000       14       0.00000000       0.00000000       0.00000000 
1
Lattice="2.586915026923375 1.8446279238812657e-17 -1.1321937595163452e-34 1.2934575134616875 2.2403341307473474 -1.934517656600185e-34 -1.0486640851660952e-34 -1.4689438837499567e-34 2.420599867576455" Properties=species:S:1:pos:R:3:Z:I:1:forces:R:3 stress="-0.058190770828972636 -6.801842179510159e-69 3.272912197944614e-35 -6.801842179510159e-69 -0.058190770828972616 3.0269803669963176e-35 3.272912197944614e-35 3.0269803669963176e-35 -0.05817963618493629" energy=-162.804672162 Minim_Constant_Volume=T Minim_Hydrostatic_Strain=F pbc="T T T"
Si       0.00000000       0.00000000       0.00000000       14       0.00000000       0.00000000       0.00000000 
1
Lattice="2.559534443560127 3.7547055393109217e-17 -3.3215190376994594e-34 1.2797672217800635 2.216621849984337 -4.288514887771896e-34 -3.0925998346117784e-34 -2.823082288580267e-34 2.4058314941258074" Properties=species:S:1:pos:R:3:Z:I:1:forces:R:3 stress="-0.08507374798943444 -6.938893903907228e-18 -5.99982163772167e-35 -6.938893903907228e-18 -0.08507374798943447 1.3784781601631646e-34 -5.99982163772167e-35 1.3784781601631646e-34 -0.08506925032173772" energy=-162.777620974 Minim_Constant_Volume=T Minim_Hydrostatic_Strain=F pbc="T T T"
Si       0.00000000       0.00000000       0.00000000       14       0.00000000       0.00000000       0.00000000 
1
Lattice="2.5316908349018217 5.5263461547793145e-17 6.294549123109169e-34 1.2658454174509108 2.192508577553212 1.780562386427337e-33 5.960062555361539e-34 1.5951367444062477e-33 2.39073370999804" Properties=species:S:1:pos:R:3:Z:I:1:forces:R:3 stress="-0.11453529470957223 2.2500450986344814e-67 1.5446448613656563e-34 2.2500450986344814e-67 -0.1145352947095723 -1.7725600492908634e-34 1.5446448613656563e-34 -1.7725600492908634e-34 -0.11454086254823893" energy=-162.739789515 Minim_Constant_Volume=T Minim_Hydrostatic_Strain=F pbc="T T T"
Si       0.00000000       0.00000000       0.00000000       14       0.00000000       0.00000000       0.00000000 
1
Lattice="2.6786743900660057 2.0740125281321587e-17 0.0 1.3393371950330029 2.319800070263947 0.0 0.0 0.0 2.501668728746679" Properties=species:S:1:pos:R:3:Z:I:1:forces:R:3 stress="0.012199298239888235 6.071532165918825e-18 7.664070525533942e-35 6.071532165918825e-18 0.012199298239888244 3.0973972267037095e-34 7.664070525533942e-35 3.0973972267037095e-34 0.012200288662672365" energy=-162.832147192 Minim_Constant_Volume=T Minim_Hydrostatic_Strain=F pbc="T T T"
Si       0.00000000       0.00000000       0.00000000       14       0.00000000       0.00000000       0.00000000 
1
Lattice="2.701980310096269 7.846173271006053e-18 -7.105308211282483e-36 1.3509901550481345 2.3399835890687237 7.105308211282487e-36 -6.63579247488695e-36 1.1493529714987426e-35 2.5186744481401107" Properties=species:S:1:pos:R:3:Z:I:1:forces:R:3 stress="0.025749501621428673 -3.469446951953614e-18 5.743560484037348e-38 -3.469446951953614e-18 0.025749501621428694 -9.065781397868843e-39 5.743560484037348e-38 -9.065781397868843e-39 0.02581970721234231" energy=-162.824928009 Minim_Constant_Volume=T Minim_Hydrostatic_Strain=F pbc="T T T"
Si       0.00000000       0.00000000       0.00000000       14       0.00000000       0.00000000       0.00000000 
1
Lattice="2.7257947920708347 4.790358556888629e-17 -3.4642268105708834e-35 1.3628973960354174 2.3606075354366642 -1.9679946455127826e-35 -3.2323376754585685e-35 -2.4847535204325978e-36 2.53377840773696" Properties=species:S:1:pos:R:3:Z:I:1:forces:R:3 stress="0.038564487403464555 3.469446951953614e-18 -7.993529847133079e-36 3.469446951953614e-18 0.038564487403464597 4.5224138292304905e-36 -7.993529847133079e-36 4.5224138292304905e-36 0.038616858929425006" energy=-162.812701302 Minim_Constant_Volume=T Minim_Hydrostatic_Strain=F pbc="T T T"
Si       0.00000000       0.00000000       0.00000000       14       0.00000000       0.00000000       0.00000000 
1
Lattice="2.750068969296073 1.9319948799943766e-17 1.6678685071017008e-34 1.3750344846480365 2.3816295895696866 -1.955118706508862e-35 1.5479807710397538e-34 -1.104581727812782e-34 2.5471307621982664" Properties=species:S:1:pos:R:3:Z:I:1:forces:R:3 stress="0.05019121181961583 -1.734723475976807e-17 -5.6296278585983714e-36 -1.734723475976807e-17 0.05019121181961585 2.9960585317089932e-36 -5.6296278585983714e-36 2.9960585317089932e-36 0.050256435011865115" energy=-162.79582503 Minim_Constant_Volume=T Minim_Hydrostatic_Strain=F pbc="T T T"
Si       0.00000000       0.00000000       0.00000000       14       0.00000000       0.00000000       0.00000000 
1
Lattice="2.7749455499186984 -9.98348879804602e-18 1.7744855639132262e-34 1.3874727749593492 2.4031733403481716 -1.9131861516773035e-35 1.6538276478201084e-34 -1.16218048158787e-34 2.558516457306307" Properties=species:S:1:pos:R:3:Z:I:1:forces:R:3 stress="0.06006209269983504 -4.837477735869483e-71 -7.096617580451967e-36 -4.837477735869483e-71 0.0600620926998351 1.706880242792963e-34 -7.096617580451967e-36 1.706880242792963e-34 0.05995168386577535" energy=-162.774860309 Minim_Constant_Volume=T Minim_Hydrostatic_Strain=F pbc="T T T"
Si       0.00000000       0.00000000       0.00000000       14       0.00000000       0.00000000       0.00000000 
1
Lattice="2.800316548609345 -3.002338828342273e-17 1.9011624645804804e-34 1.4001582743046725 2.4251452697336537 -1.835960572097378e-35 1.7795595695620837e-34 -1.2276757075836244e-34 2.568189659407006" Properties=species:S:1:pos:R:3:Z:I:1:forces:R:3 stress="0.06747019573819718 -5.084182893140737e-71 -8.475505221268342e-36 -5.084182893140737e-71 0.06747019573819718 4.1279451911846585e-36 -8.475505221268342e-36 4.1279451911846585e-36 0.06747197917892399" energy=-162.750605275 Minim_Constant_Volume=T Minim_Hydrostatic_Strain=F pbc="T T T"
Si       0.00000000       0.00000000       0.00000000       14       0.00000000       0.00000000       0.00000000 
