2
Lattice="3.2792848674580775 0.0 0.0 0.0 3.2792848674580775 0.0 0.0 0.0 3.2792848674580775" Properties=species:S:1:pos:R:3:Z:I:1:forces:R:3 stress="1.481725130108986e-05 -1.337238769857026e-33 -3.0565457596732015e-33 -1.337238769857026e-33 1.481725130108987e-05 0.0 -3.0565457596732015e-33 0.0 1.4817251301089867e-05" energy=-12.0481737535 Minim_Constant_Volume=T Minim_Hydrostatic_Strain=F pbc="T T T"
Ti       0.00000000      -0.00000000      -0.00000000       22      -0.00000000       0.00000000       0.00000000 
Ti       1.63964243       1.63964243       1.63964243       22       0.00000000      -0.00000000       0.00000000 
2
Lattice="3.25172654885584 0.0 0.0 0.0 3.25172654885584 0.0 0.0 0.0 3.25172654885584" Properties=species:S:1:pos:R:3:Z:I:1:forces:R:3 stress="-0.024661288665971216 -1.0880007696122012e-32 1.2434294509853725e-32 -1.0880007696122012e-32 -0.024661288665971226 0.0 1.2434294509853725e-32 0.0 -0.024661288665971226" energy=-12.0376177923 Minim_Constant_Volume=T Minim_Hydrostatic_Strain=F pbc="T T T"
Ti       0.00000000      -0.00000000      -0.00000000       22       0.00000000      -0.00000000      -0.00000000 
Ti       1.62586327       1.62586327       1.62586327       22      -0.00000000       0.00000000      -0.00000000 
2
Lattice="3.2236930284629652 0.0 0.0 0.0 3.2236930284629652 0.0 0.0 0.0 3.2236930284629652" Properties=species:S:1:pos:R:3:Z:I:1:forces:R:3 stress="-0.04977373474946751 -9.488620702914023e-33 -3.162873567638007e-33 -9.488620702914023e-33 -0.04977373474946745 0.0 -3.162873567638007e-33 0.0 -0.04977373474946744" energy=-12.0047265905 Minim_Constant_Volume=T Minim_Hydrostatic_Strain=F pbc="T T T"
Ti       0.00000000      -0.00000000      -0.00000000       22      -0.00000000       0.00000000       0.00000000 
Ti       1.61184651       1.61184651       1.61184651       22       0.00000000      -0.00000000       0.00000000 
2
Lattice="3.1951632753527033 0.0 0.0 0.0 3.1951632753527033 0.0 0.0 0.0 3.1951632753527033" Properties=species:S:1:pos:R:3:Z:I:1:forces:R:3 stress="-0.07330125958142998 1.1268630136587017e-32 1.1268630136587017e-32 1.1268630136587017e-32 -0.07330125958142997 0.0 1.1268630136587017e-32 0.0 -0.07330125958142997" energy=-11.9503230991 Minim_Constant_Volume=T Minim_Hydrostatic_Strain=F pbc="T T T"
Ti       0.00000000      -0.00000000      -0.00000000       22      -0.00000000       0.00000000      -0.00000000 
Ti       1.59758164       1.59758164       1.59758164       22       0.00000000       0.00000000       0.00000000 
2
Lattice="3.1661147286286533 0.0 0.0 0.0 3.1661147286286533 0.0 0.0 0.0 3.1661147286286533" Properties=species:S:1:pos:R:3:Z:I:1:forces:R:3 stress="-0.09667772912883424 -8.197395790349519e-34 -4.098697895174759e-34 -8.197395790349519e-34 -0.09667772912883425 0.0 -4.098697895174759e-34 0.0 -0.09667772912883425" energy=-11.8755872315 Minim_Constant_Volume=T Minim_Hydrostatic_Strain=F pbc="T T T"
Ti       0.00000000      -0.00000000      -0.00000000       22       0.00000000       0.00000000       0.00000000 
Ti       1.58305736       1.58305736       1.58305736       22       0.00000000       0.00000000       0.00000000 
2
Lattice="3.1365231400770885 0.0 0.0 0.0 3.1365231400770885 0.0 0.0 0.0 3.1365231400770885" Properties=species:S:1:pos:R:3:Z:I:1:forces:R:3 stress="-0.11557509827204725 -6.2646018163388465e-34 -8.352802421785127e-34 -6.2646018163388465e-34 -0.11557509827204726 0.0 -8.352802421785127e-34 0.0 -0.11557509827204726" energy=-11.7815402179 Minim_Constant_Volume=T Minim_Hydrostatic_Strain=F pbc="T T T"
Ti       0.00000000      -0.00000000      -0.00000000       22       0.00000000      -0.00000000       0.00000000 
Ti       1.56826157       1.56826157       1.56826157       22      -0.00000000       0.00000000      -0.00000000 
2
Lattice="3.3063876243614407 0.0 0.0 0.0 3.3063876243614407 0.0 0.0 0.0 3.3063876243614407" Properties=species:S:1:pos:R:3:Z:I:1:forces:R:3 stress="0.022698954326077166 3.5703868699030014e-33 6.764943542974108e-33 3.5703868699030014e-33 0.02269895432607716 0.0 6.764943542974108e-33 0.0 0.02269895432607716" energy=-12.0381647812 Minim_Constant_Volume=T Minim_Hydrostatic_Strain=F pbc="T T T"
Ti       0.00000000      -0.00000000      -0.00000000       22       0.00000000      -0.00000000       0.00000000 
Ti       1.65319381       1.65319381       1.65319381       22      -0.00000000      -0.00000000       0.00000000 
2
Lattice="3.3330531922424695 0.0 0.0 0.0 3.3330531922424695 0.0 0.0 0.0 3.3330531922424695" Properties=species:S:1:pos:R:3:Z:I:1:forces:R:3 stress="0.043759749070417554 3.6984071125830122e-34 0.0 3.6984071125830122e-34 0.04375974907041751 0.0 0.0 0.0 0.04375974907041751" energy=-12.0086324045 Minim_Constant_Volume=T Minim_Hydrostatic_Strain=F pbc="T T T"
Ti       0.00000000      -0.00000000      -0.00000000       22       0.00000000       0.00000000       0.00000000 
Ti       1.66652660       1.66652660       1.66652660       22       0.00000000       0.00000000       0.00000000 
2
Lattice="3.3592987861718466 0.0 0.0 0.0 3.3592987861718466 0.0 0.0 0.0 3.3592987861718466" Properties=species:S:1:pos:R:3:Z:I:1:forces:R:3 stress="0.06042345053663915 -3.640842891962731e-34 0.0 -3.640842891962731e-34 0.06042345053663917 0.0 0.0 0.0 0.06042345053663917" energy=-11.962315741 Minim_Constant_Volume=T Minim_Hydrostatic_Strain=F pbc="T T T"
Ti       0.00000000      -0.00000000      -0.00000000       22       0.00000000      -0.00000000       0.00000000 
Ti       1.67964939       1.67964939       1.67964939       22      -0.00000000       0.00000000       0.00000000 
2
Lattice="3.3851405615939423 0.0 0.0 0.0 3.3851405615939423 0.0 0.0 0.0 3.3851405615939423" Properties=species:S:1:pos:R:3:Z:I:1:forces:R:3 stress="0.07155730144768958 1.1473496035247716e-32 -1.1473496035247716e-32 1.1473496035247716e-32 0.07155730144768958 0.0 -1.1473496035247716e-32 0.0 0.07155730144768958" energy=-11.9037387226 Minim_Constant_Volume=T Minim_Hydrostatic_Strain=F pbc="T T T"
Ti       0.00000000      -0.00000000      -0.00000000       22      -0.00000000      -0.00000000       0.00000000 
Ti       1.69257028       1.69257028       1.69257028       22       0.00000000      -0.00000000      -0.00000000 
2
Lattice="3.410593701989227 0.0 0.0 0.0 3.410593701989227 0.0 0.0 0.0 3.410593701989227" Properties=species:S:1:pos:R:3:Z:I:1:forces:R:3 stress="0.07809715816811202 0.0 1.2009312623882228e-32 0.0 0.07809715816811207 0.0 1.2009312623882228e-32 0.0 0.07809715816811207" energy=-11.8375110874 Minim_Constant_Volume=T Minim_Hydrostatic_Strain=F pbc="T T T"
Ti       0.00000000      -0.00000000      -0.00000000       22      -0.00000000       0.00000000      -0.00000000 
Ti       1.70529685       1.70529685       1.70529685       22      -0.00000000       0.00000000       0.00000000 
2
Lattice="3.4356724975096977 0.0 0.0 0.0 3.4356724975096977 0.0 0.0 0.0 3.4356724975096977" Properties=species:S:1:pos:R:3:Z:I:1:forces:R:3 stress="0.08261739781041699 -4.873082049653256e-33 -4.873082049653256e-33 -4.873082049653256e-33 0.08261739781041695 0.0 -4.873082049653256e-33 0.0 0.08261739781041694" energy=-11.766635236 Minim_Constant_Volume=T Minim_Hydrostatic_Strain=F pbc="T T T"
Ti       0.00000000      -0.00000000      -0.00000000       22       0.00000000      -0.00000000      -0.00000000 
Ti       1.71783625       1.71783625       1.71783625       22      -0.00000000       0.00000000      -0.00000000 
