8
Lattice="5.458039489809288 2.0834758021195366e-25 3.255430940811776e-27 2.0834758021195366e-25 5.458039489809288 0.0 3.255430940811776e-27 0.0 5.458039489809288" Properties=species:S:1:pos:R:3:forces:R:3 stress="7.152200370502596e-05 0.0 1.4808999816572635e-25 0.0 7.152200370502596e-05 -6.016156175482633e-26 1.4808999816572635e-25 -6.016156175482633e-26 7.152200370502596e-05" energy=-1304.76181421 Minim_Constant_Volume=T Minim_Hydrostatic_Strain=F pbc="T T T"
Si      -0.00000000       0.00000000       0.00000000      -0.00000000       0.00000000      -0.00000000 
Si       1.36450987       1.36450987       1.36450987       0.00000000       0.00000000       0.00000000 
Si       2.72901974       2.72901974      -0.00000000       0.00000000      -0.00000000      -0.00000000 
Si       4.09352962       4.09352962       1.36450987      -0.00000000      -0.00000000       0.00000000 
Si       2.72901974       0.00000000       2.72901974       0.00000000       0.00000000      -0.00000000 
Si       4.09352962       1.36450987       4.09352962      -0.00000000       0.00000000      -0.00000000 
Si      -0.00000000       2.72901974       2.72901974      -0.00000000      -0.00000000      -0.00000000 
Si       1.36450987       4.09352962       4.09352962       0.00000000      -0.00000000       0.00000000 
8
Lattice="5.412171443182295 2.0659667743053813e-25 3.2280730848521582e-27 2.0659667743053813e-25 5.412171443182295 0.0 3.2280730848521582e-27 0.0 5.412171443182295" Properties=species:S:1:pos:R:3:forces:R:3 stress="-0.017238430435571703 4.484155085839415e-43 0.0 4.484155085839415e-43 -0.017238430435571696 -5.647903290816889e-26 0.0 -5.647903290816889e-26 -0.017238430435571706" energy=-1304.72840215 Minim_Constant_Volume=T Minim_Hydrostatic_Strain=F pbc="T T T"
Si      -0.00000000       0.00000000       0.00000000      -0.00000000       0.00000000       0.00000000 
Si       1.35304286       1.35304286       1.35304286       0.00000000      -0.00000000       0.00000000 
Si       2.70608572       2.70608572      -0.00000000      -0.00000000       0.00000000       0.00000000 
Si       4.05912858       4.05912858       1.35304286      -0.00000000      -0.00000000      -0.00000000 
Si       2.70608572       0.00000000       2.70608572      -0.00000000       0.00000000       0.00000000 
Si       4.05912858       1.35304286       4.05912858       0.00000000      -0.00000000       0.00000000 
Si      -0.00000000       2.70608572       2.70608572      -0.00000000       0.00000000       0.00000000 
Si       1.35304286       4.05912858       4.05912858       0.00000000      -0.00000000      -0.00000000 
8
Lattice="5.365512471020085 2.0481558296185132e-25 3.2002434837789268e-27 2.0481558296185132e-25 5.365512471020085 0.0 3.2002434837789268e-27 0.0 5.365512471020085" Properties=species:S:1:pos:R:3:forces:R:3 stress="-0.03819157134121029 -3.619065953105585e-43 -2.2986238927436303e-25 -3.619065953105585e-43 -0.03819157134121032 -1.5324159289296208e-25 -2.2986238927436303e-25 -1.5324159289296208e-25 -0.03819157134121029" energy=-1304.61540805 Minim_Constant_Volume=T Minim_Hydrostatic_Strain=F pbc="T T T"
Si      -0.00000000       0.00000000       0.00000000      -0.00000000       0.00000000      -0.00000000 
Si       1.34137812       1.34137812       1.34137812       0.00000000       0.00000000      -0.00000000 
Si       2.68275624       2.68275624      -0.00000000      -0.00000000       0.00000000       0.00000000 
Si       4.02413435       4.02413435       1.34137812       0.00000000      -0.00000000       0.00000000 
Si       2.68275624       0.00000000       2.68275624      -0.00000000       0.00000000      -0.00000000 
Si       4.02413435       1.34137812       4.02413435       0.00000000      -0.00000000      -0.00000000 
Si      -0.00000000       2.68275624       2.68275624       0.00000000       0.00000000       0.00000000 
Si       1.34137812       4.02413435       4.02413435       0.00000000      -0.00000000      -0.00000000 
8
Lattice="5.318027569462563 2.0300296061740246e-25 3.1719212596469135e-27 2.0300296061740246e-25 5.318027569462563 0.0 3.1719212596469135e-27 0.0 5.318027569462563" Properties=species:S:1:pos:R:3:forces:R:3 stress="-0.058130661922630764 4.679712368520696e-25 -5.605193857299268e-45 4.679712368520696e-25 -0.058130661922630764 -1.323515003415073e-54 -5.605193857299268e-45 -1.323515003415073e-54 -0.05813066192263077" energy=-1304.42164794 Minim_Constant_Volume=T Minim_Hydrostatic_Strain=F pbc="T T T"
Si      -0.00000000       0.00000000       0.00000000      -0.00000000      -0.00000000       0.00000000 
Si       1.32950689       1.32950689       1.32950689      -0.00000000      -0.00000000       0.00000000 
Si       2.65901378       2.65901378      -0.00000000      -0.00000000      -0.00000000       0.00000000 
Si       3.98852068       3.98852068       1.32950689       0.00000000       0.00000000      -0.00000000 
Si       2.65901378       0.00000000       2.65901378      -0.00000000      -0.00000000       0.00000000 
Si       3.98852068       1.32950689       3.98852068      -0.00000000      -0.00000000       0.00000000 
Si      -0.00000000       2.65901378       2.65901378       0.00000000      -0.00000000       0.00000000 
Si       1.32950689       3.98852068       3.98852068       0.00000000       0.00000000       0.00000000 
8
Lattice="5.269679188169194 2.011573770029112e-25 3.1430840156704876e-27 2.011573770029112e-25 5.269679188169194 0.0 3.1430840156704876e-27 0.0 5.269679188169194" Properties=species:S:1:pos:R:3:forces:R:3 stress="-0.08030718224531815 -3.587324068671532e-43 7.94329562195978e-26 -3.587324068671532e-43 -0.0803071822453182 -3.6706149139179695e-19 7.94329562195978e-26 -3.6706149139179695e-19 -0.08030718224531817" energy=-1304.13981161 Minim_Constant_Volume=T Minim_Hydrostatic_Strain=F pbc="T T T"
Si      -0.00000000       0.00000000       0.00000000       0.00000000      -0.00000000      -0.00000000 
Si       1.31741980       1.31741980       1.31741980      -0.00000000       0.00000000      -0.00000000 
Si       2.63483959       2.63483959      -0.00000000      -0.00000000      -0.00000000       0.00000000 
Si       3.95225939       3.95225939       1.31741980       0.00000000      -0.00000000       0.00000000 
Si       2.63483959       0.00000000       2.63483959       0.00000000      -0.00000000      -0.00000000 
Si       3.95225939       1.31741980       3.95225939      -0.00000000      -0.00000000      -0.00000000 
Si      -0.00000000       2.63483959       2.63483959      -0.00000000      -0.00000000       0.00000000 
Si       1.31741980       3.95225939       3.95225939       0.00000000       0.00000000      -0.00000000 
8
Lattice="5.220426968429644 1.9927729152130887e-25 3.113707680020451e-27 1.9927729152130887e-25 5.220426968429644 0.0 3.113707680020451e-27 0.0 5.220426968429644" Properties=species:S:1:pos:R:3:forces:R:3 stress="-0.09992672802873484 -9.712662011928818e-25 3.2375540039762723e-25 -9.712662011928818e-25 -0.09992672802873487 -2.2623396178812246e-19 3.2375540039762723e-25 -2.2623396178812246e-19 -0.09992672802873488" energy=-1303.77271918 Minim_Constant_Volume=T Minim_Hydrostatic_Strain=F pbc="T T T"
Si      -0.00000000       0.00000000       0.00000000      -0.00000000      -0.00000000      -0.00000000 
Si       1.30510674       1.30510674       1.30510674      -0.00000000       0.00000000       0.00000000 
Si       2.61021348       2.61021348      -0.00000000       0.00000000       0.00000000       0.00000000 
Si       3.91532023       3.91532023       1.30510674       0.00000000       0.00000000      -0.00000000 
Si       2.61021348       0.00000000       2.61021348      -0.00000000      -0.00000000       0.00000000 
Si       3.91532023       1.30510674       3.91532023       0.00000000       0.00000000      -0.00000000 
Si      -0.00000000       2.61021348       2.61021348       0.00000000       0.00000000      -0.00000000 
Si       1.30510674       3.91532023       3.91532023       0.00000000      -0.00000000      -0.00000000 
8
Lattice="5.503149299856355 2.1006953912864444e-25 3.2823365488850694e-27 2.1006953912864444e-25 5.503149299856355 0.0 3.2823365488850694e-27 0.0 5.503149299856355" Properties=species:S:1:pos:R:3:forces:R:3 stress="0.01363580247499574 -1.3254832873092094e-42 5.553750131144847e-25 -1.3254832873092094e-42 0.013635802474995752 -4.5522542010762145e-27 5.553750131144847e-25 -4.5522542010762145e-27 0.013635802474995745" energy=-1304.7327957 Minim_Constant_Volume=T Minim_Hydrostatic_Strain=F pbc="T T T"
Si      -0.00000000       0.00000000       0.00000000      -0.00000000       0.00000000       0.00000000 
Si       1.37578732       1.37578732       1.37578732      -0.00000000       0.00000000       0.00000000 
Si       2.75157465       2.75157465      -0.00000000      -0.00000000      -0.00000000       0.00000000 
Si       4.12736197       4.12736197       1.37578732       0.00000000       0.00000000       0.00000000 
Si       2.75157465       0.00000000       2.75157465       0.00000000       0.00000000      -0.00000000 
Si       4.12736197       1.37578732       4.12736197      -0.00000000       0.00000000       0.00000000 
Si      -0.00000000       2.75157465       2.75157465       0.00000000       0.00000000       0.00000000 
Si       1.37578732       4.12736197       4.12736197       0.00000000       0.00000000      -0.00000000 
8
Lattice="5.547531452793762 2.117637214786202e-25 3.30880814810344e-27 2.117637214786202e-25 5.547531452793762 0.0 3.30880814810344e-27 0.0 5.547531452793762" Properties=species:S:1:pos:R:3:forces:R:3 stress="0.024210597541159565 1.1468048351722857e-24 -5.605193857299268e-45 1.1468048351722857e-24 0.02421059754115956 -1.7474176247278226e-19 -5.605193857299268e-45 -1.7474176247278226e-19 0.024210597541159565" energy=-1304.65518719 Minim_Constant_Volume=T Minim_Hydrostatic_Strain=F pbc="T T T"
Si      -0.00000000       0.00000000       0.00000000       0.00000000       0.00000000       0.00000000 
Si       1.38688286       1.38688286       1.38688286      -0.00000000      -0.00000000      -0.00000000 
Si       2.77376573       2.77376573      -0.00000000       0.00000000      -0.00000000      -0.00000000 
Si       4.16064859       4.16064859       1.38688286       0.00000000       0.00000000      -0.00000000 
Si       2.77376573       0.00000000       2.77376573       0.00000000       0.00000000       0.00000000 
Si       4.16064859       1.38688286       4.16064859      -0.00000000      -0.00000000      -0.00000000 
Si      -0.00000000       2.77376573       2.77376573       0.00000000      -0.00000000      -0.00000000 
Si       1.38688286       4.16064859       4.16064859       0.00000000       0.00000000      -0.00000000 
8
Lattice="5.5912146013733715 2.134312210120321e-25 3.3348628283130016e-27 2.134312210120321e-25 5.5912146013733715 0.0 3.3348628283130016e-27 0.0 5.5912146013733715" Properties=species:S:1:pos:R:3:forces:R:3 stress="0.033047760333377044 -1.763992622999715e-26 -3.9689834017493577e-26 -1.763992622999715e-26 0.033047760333377064 1.602686040466177e-19 -3.9689834017493577e-26 1.602686040466177e-19 0.03304776033337706" energy=-1304.53825628 Minim_Constant_Volume=T Minim_Hydrostatic_Strain=F pbc="T T T"
Si      -0.00000000       0.00000000       0.00000000      -0.00000000       0.00000000      -0.00000000 
Si       1.39780365       1.39780365       1.39780365      -0.00000000       0.00000000       0.00000000 
Si       2.79560730       2.79560730      -0.00000000      -0.00000000      -0.00000000      -0.00000000 
Si       4.19341095       4.19341095       1.39780365       0.00000000       0.00000000       0.00000000 
Si       2.79560730       0.00000000       2.79560730       0.00000000       0.00000000       0.00000000 
Si       4.19341095       1.39780365       4.19341095      -0.00000000       0.00000000      -0.00000000 
Si      -0.00000000       2.79560730       2.79560730      -0.00000000      -0.00000000      -0.00000000 
Si       1.39780365       4.19341095       4.19341095       0.00000000      -0.00000000      -0.00000000 
8
Lattice="5.634225634705743 2.1507306415625025e-25 3.36051662744141e-27 2.1507306415625025e-25 5.634225634705743 0.0 3.36051662744141e-27 0.0 5.634225634705743" Properties=species:S:1:pos:R:3:forces:R:3 stress="0.04090576446951137 1.7371631864141952e-26 6.948652745656782e-26 1.7371631864141952e-26 0.0409057644695114 -1.9990286056807385e-19 6.948652745656782e-26 -1.9990286056807385e-19 0.04090576446951138" energy=-1304.38776287 Minim_Constant_Volume=T Minim_Hydrostatic_Strain=F pbc="T T T"
Si      -0.00000000       0.00000000       0.00000000       0.00000000       0.00000000      -0.00000000 
Si       1.40855641       1.40855641       1.40855641       0.00000000       0.00000000       0.00000000 
Si       2.81711282       2.81711282      -0.00000000       0.00000000       0.00000000       0.00000000 
Si       4.22566923       4.22566923       1.40855641      -0.00000000      -0.00000000       0.00000000 
Si       2.81711282       0.00000000       2.81711282       0.00000000       0.00000000      -0.00000000 
Si       4.22566923       1.40855641       4.22566923       0.00000000       0.00000000       0.00000000 
Si      -0.00000000       2.81711282       2.81711282       0.00000000       0.00000000      -0.00000000 
Si       1.40855641       4.22566923       4.22566923       0.00000000      -0.00000000       0.00000000 
8
Lattice="5.676589824165384 2.166902155854469e-25 3.385784618522608e-27 2.166902155854469e-25 5.676589824165384 0.0 3.385784618522608e-27 0.0 5.676589824165384" Properties=species:S:1:pos:R:3:forces:R:3 stress="0.048072246843931195 -7.058688440264071e-47 0.0 -7.058688440264071e-47 0.04807224684393122 2.407412430484045e-35 0.0 2.407412430484045e-35 0.048072246843931195" energy=-1304.20650587 Minim_Constant_Volume=T Minim_Hydrostatic_Strain=F pbc="T T T"
Si      -0.00000000       0.00000000       0.00000000       0.00000000       0.00000000       0.00000000 
Si       1.41914746       1.41914746       1.41914746       0.00000000      -0.00000000       0.00000000 
Si       2.83829491       2.83829491      -0.00000000      -0.00000000      -0.00000000       0.00000000 
Si       4.25744237       4.25744237       1.41914746       0.00000000       0.00000000       0.00000000 
Si       2.83829491       0.00000000       2.83829491       0.00000000       0.00000000       0.00000000 
Si       4.25744237       1.41914746       4.25744237       0.00000000      -0.00000000       0.00000000 
Si      -0.00000000       2.83829491       2.83829491      -0.00000000      -0.00000000       0.00000000 
Si       1.41914746       4.25744237       4.25744237       0.00000000       0.00000000       0.00000000 
8
Lattice="5.718330954271498 2.1828358321665564e-25 3.410680987760244e-27 2.1828358321665564e-25 5.718330954271498 0.0 3.410680987760244e-27 0.0 5.718330954271498" Properties=species:S:1:pos:R:3:forces:R:3 stress="0.05423545527779573 8.022221610029649e-47 0.0 8.022221610029649e-47 0.05423545527779576 2.690003452054484e-19 0.0 2.690003452054484e-19 0.05423545527779573" energy=-1303.99839645 Minim_Constant_Volume=T Minim_Hydrostatic_Strain=F pbc="T T T"
Si      -0.00000000       0.00000000       0.00000000       0.00000000       0.00000000       0.00000000 
Si       1.42958274       1.42958274       1.42958274      -0.00000000       0.00000000       0.00000000 
Si       2.85916548       2.85916548      -0.00000000      -0.00000000      -0.00000000       0.00000000 
Si       4.28874822       4.28874822       1.42958274      -0.00000000       0.00000000       0.00000000 
Si       2.85916548       0.00000000       2.85916548       0.00000000       0.00000000       0.00000000 
Si       4.28874822       1.42958274       4.28874822      -0.00000000       0.00000000       0.00000000 
Si      -0.00000000       2.85916548       2.85916548      -0.00000000       0.00000000       0.00000000 
Si       1.42958274       4.28874822       4.28874822      -0.00000000       0.00000000       0.00000000 
