2
Lattice="3.6470047678511603 3.633707560729061e-17 -2.195610506441858e-33 -1.8235023839255795 3.1583987766820747 1.636666525783846e-33 -2.4627191408894645e-33 7.813445089842281e-34 3.2240666785862513" Properties=species:S:1:pos:R:3:Z:I:1:forces:R:3 stress="2.9345228173480233e-05 -2.0231715072918772e-20 1.1776470385326623e-37 -2.0231715072918772e-20 2.934522817348021e-05 8.535120335986189e-38 1.1776470385326623e-37 8.535120335986189e-38 9.577363140477777e-05" energy=-8.06911968737 Minim_Constant_Volume=T Minim_Hydrostatic_Strain=F pbc="T T T"
Si      -0.00000000       0.00000000      -0.00000000       14      -0.00000000       0.00000000       0.00000000 
Si      -0.00000000       2.10559918       1.61203334       14      -0.00000000      -0.00000000      -0.00000000 
2
Lattice="3.5903644826015673 4.4201590380309195e-17 -2.014349584407981e-33 -1.795182241300783 3.1093468507783304 4.2031010817636796e-33 -2.2528764585040298e-33 3.478301292612613e-33 3.2429274234897774" Properties=species:S:1:pos:R:3:Z:I:1:forces:R:3 stress="-0.02595013917183975 -3.6983310306774895e-19 -4.176618083442232e-34 -3.6983310306774895e-19 -0.025950139171839734 -2.075782742034674e-33 -4.176618083442232e-34 -2.075782742034674e-33 -0.025948246123411102" energy=-8.05675178712 Minim_Constant_Volume=T Minim_Hydrostatic_Strain=F pbc="T T T"
Si      -0.00000000       0.00000000      -0.00000000       14      -0.00000000       0.00000000       0.00000000 
Si       0.00000000       2.07289790       1.62146371       14       0.00000000      -0.00000000      -0.00000000 
2
Lattice="3.5286055199391853 2.162176702889082e-17 -1.5916194882632177e-33 -1.764302759969592 3.055862020201333 4.041433739340618e-33 -1.816486504061181e-33 3.441329751019421e-33 3.2711155090282547" Properties=species:S:1:pos:R:3:Z:I:1:forces:R:3 stress="-0.040888030044040465 -3.725883647095592e-18 -8.067381949061578e-34 -3.725883647095592e-18 -0.04088803004404043 1.1645362668977146e-33 -8.067381949061578e-34 1.1645362668977146e-33 -0.04086692764851634" energy=-8.02425948025 Minim_Constant_Volume=T Minim_Hydrostatic_Strain=F pbc="T T T"
Si      -0.00000000       0.00000000      -0.00000000       14      -0.00000000       0.00000000       0.00000000 
Si      -0.00000000       2.03724135       1.63555775       14      -0.00000000       0.00000000       0.00000000 
2
Lattice="3.46153262659185 5.184433785409636e-18 -9.678746046289064e-34 -1.7307663132959243 2.997775190657216 5.0880852017818984e-33 -1.1864799588828e-33 4.789517248005666e-33 3.309357064422678" Properties=species:S:1:pos:R:3:Z:I:1:forces:R:3 stress="-0.04553032538265034 -3.020995177974894e-18 -1.106343540756838e-34 -3.020995177974894e-18 -0.04553032538265028 -9.970047873577068e-35 -1.106343540756838e-34 -9.970047873577068e-35 -0.04552107331541095" energy=-7.98440969845 Minim_Constant_Volume=T Minim_Hydrostatic_Strain=F pbc="T T T"
Si      -0.00000000       0.00000000      -0.00000000       14      -0.00000000       0.00000000       0.00000000 
Si      -0.00000000       1.99851679       1.65467853       14       0.00000000      -0.00000000      -0.00000000 
2
Lattice="3.402554213489853 7.233996479029054e-17 -4.97919795741419e-34 -1.701277106744926 2.946698386635994 1.060446082158693e-33 -7.103842429773359e-34 4.848767996218562e-34 3.332909580394168" Properties=species:S:1:pos:R:3:Z:I:1:forces:R:3 stress="-0.07469425840796953 -1.070032157794899e-17 -1.0035386477222822e-34 -1.070032157794899e-17 -0.07469425840796945 1.329950199127394e-34 -1.0035386477222822e-34 1.329950199127394e-34 -0.07466582300239515" energy=-7.93180567208 Minim_Constant_Volume=T Minim_Hydrostatic_Strain=F pbc="T T T"
Si      -0.00000000       0.00000000      -0.00000000       14       0.00000000       0.00000000       0.00000000 
Si      -0.00000000       1.96446559       1.66645479       14      -0.00000000       0.00000000       0.00000000 
2
Lattice="3.355265416003306 8.469679716253747e-17 -2.4801528423873847e-33 -1.6776327080016524 2.905745086698226 4.516648862871408e-33 -2.642194653480019e-33 3.26635646101372e-33 3.3327502037562518" Properties=species:S:1:pos:R:3:Z:I:1:forces:R:3 stress="-0.14251691747327733 2.200015746673548e-18 -5.384097534064883e-34 2.200015746673548e-18 -0.14251691747327713 -4.645121624551816e-34 -5.384097534064883e-34 -4.645121624551816e-34 -0.14251305230149566" energy=-7.8343280745 Minim_Constant_Volume=T Minim_Hydrostatic_Strain=F pbc="T T T"
Si      -0.00000000       0.00000000      -0.00000000       14       0.00000000      -0.00000000      -0.00000000 
Si      -0.00000000       1.93716339       1.66637510       14      -0.00000000       0.00000000       0.00000000 
2
Lattice="3.7030658875551623 6.902053018857626e-17 -2.3904515275031615e-33 -1.8515329437775805 3.2069491305103415 4.6673142570619153e-33 -2.684368414921748e-33 3.790841077019041e-33 3.204886262532166" Properties=species:S:1:pos:R:3:Z:I:1:forces:R:3 stress="0.025081786712188314 8.032449134406449e-20 -6.265873410147078e-34 8.032449134406449e-20 0.02508178671218829 -1.973068302422257e-33 -6.265873410147078e-34 -1.973068302422257e-33 0.02510160391780138" energy=-8.05733954708 Minim_Constant_Volume=T Minim_Hydrostatic_Strain=F pbc="T T T"
Si      -0.00000000       0.00000000      -0.00000000       14      -0.00000000       0.00000000       0.00000000 
Si      -0.00000000       2.13796609       1.60244313       14       0.00000000      -0.00000000      -0.00000000 
2
Lattice="3.76092007512636 1.5501956783174338e-16 -2.9022440544837915e-33 -1.8804600375631793 3.2570523266623086 2.8887070670535105e-32 -3.1835247426166136e-33 2.782245773644972e-32 3.1827691117504218" Properties=species:S:1:pos:R:3:Z:I:1:forces:R:3 stress="0.047520273852802906 -1.1006791576132765e-17 4.271210151369529e-34 -1.1006791576132765e-17 0.04752027385280289 1.7412856233739693e-34 4.271210151369529e-34 1.7412856233739693e-34 0.04752971635190733" energy=-8.02345597043 Minim_Constant_Volume=T Minim_Hydrostatic_Strain=F pbc="T T T"
Si      -0.00000000       0.00000000      -0.00000000       14       0.00000000      -0.00000000      -0.00000000 
Si      -0.00000000       2.17136822       1.59138456       14       0.00000000      -0.00000000      -0.00000000 
2
Lattice="3.820801359615331 1.5291623611509642e-16 -5.654005374080953e-33 -1.910400679807665 3.3089110402410014 2.436794797292027e-32 -5.582734356971057e-33 2.2720775360767997e-32 3.1571402811105065" Properties=species:S:1:pos:R:3:Z:I:1:forces:R:3 stress="0.06718603999478735 -1.0497648490136799e-17 4.174022711450524e-34 -1.0497648490136799e-17 0.06718603999478731 8.33945383872557e-34 4.174022711450524e-34 8.33945383872557e-34 0.06718828582563688" energy=-7.97005586139 Minim_Constant_Volume=T Minim_Hydrostatic_Strain=F pbc="T T T"
Si      -0.00000000       0.00000000      -0.00000000       14       0.00000000      -0.00000000      -0.00000000 
Si      -0.00000000       2.20594069       1.57857014       14      -0.00000000       0.00000000      -0.00000000 
2
Lattice="3.8832770572582436 1.8415356935295875e-16 -9.671016781559169e-33 -1.9416385286291211 3.3630165815189197 2.7958670872028486e-32 -9.037364576423958e-33 2.479583543196085e-32 3.1273557159438132" Properties=species:S:1:pos:R:3:Z:I:1:forces:R:3 stress="0.08407975057712112 1.0188078486888119e-18 2.37472903326303e-34 1.0188078486888119e-18 0.0840797505771209 -1.8650949108048657e-33 2.37472903326303e-34 -1.8650949108048657e-33 0.08407974678632225" energy=-7.89972895337 Minim_Constant_Volume=T Minim_Hydrostatic_Strain=F pbc="T T T"
Si      -0.00000000       0.00000000      -0.00000000       14      -0.00000000       0.00000000       0.00000000 
Si      -0.00000000       2.24201105       1.56367786       14       0.00000000      -0.00000000      -0.00000000 
2
Lattice="3.948938621437373 1.680475435513758e-16 -1.6313310652998456e-32 -1.9744693107186857 3.4198811641502687 3.1951872728290403e-32 -1.4625454381504963e-32 2.607743870352475e-32 3.0928321760160227" Properties=species:S:1:pos:R:3:Z:I:1:forces:R:3 stress="0.09823235782797375 -1.231630189655419e-17 1.362744689607403e-33 -1.231630189655419e-17 0.09823235782797343 6.869442606559166e-34 1.362744689607403e-33 6.869442606559166e-34 0.09821601194075047" energy=-7.81505262793 Minim_Constant_Volume=T Minim_Hydrostatic_Strain=F pbc="T T T"
Si      -0.00000000       0.00000000       0.00000000       14       0.00000000      -0.00000000      -0.00000000 
Si      -0.00000000       2.27992078       1.54641609       14      -0.00000000       0.00000000       0.00000000 
2
Lattice="4.018100560499103 2.1851388323398222e-17 -2.5716698271337863e-32 -2.00905028024955 3.479777160352719 3.623313071840518e-32 -2.2408767196218278e-32 2.6427414469805474e-32 3.053526849454523" Properties=species:S:1:pos:R:3:Z:I:1:forces:R:3 stress="0.10987203350715317 2.068482069982647e-17 2.1901261209803735e-33 2.068482069982647e-17 0.1098720335071528 -4.969695905943154e-34 2.1901261209803735e-33 -4.969695905943154e-34 0.10984869888754598" energy=-7.71847941414 Minim_Constant_Volume=T Minim_Hydrostatic_Strain=F pbc="T T T"
Si      -0.00000000       0.00000000       0.00000000       14      -0.00000000       0.00000000       0.00000000 
Si      -0.00000000       2.31985144       1.52676342       14       0.00000000      -0.00000000       0.00000000 
