12
Lattice="5.753695825489497 0.0 0.0 0.0 5.753695825489497 0.0 0.0 0.0 7.249656744495459" Properties=species:S:1:pos:R:3:Z:I:1:forces:R:3 stress="0.03469660495333719 0.0 -2.47882585279802e-27 0.0 0.03469660495333719 -2.47882585279802e-27 -2.47882585279802e-27 -2.47882585279802e-27 0.07512170950163882" cutoff=-1.0 energy=-1953.34567098 nneightol=1.2 pbc="T T T"
Si       0.48848877       0.48848877       0.00000000       14       0.52110512       0.52110512      -0.00000000 
Si      -0.48848877      -0.48848877       3.62482838       14      -0.52110512      -0.52110512      -0.00000000 
Si       2.38835913       3.36533669       5.43724256       14      -0.52110512       0.52110512      -0.00000000 
Si       3.36533669       2.38835913       1.81241418       14       0.52110512      -0.52110512      -0.00000000 
Si       0.69504645       3.88489542       0.17544169       14       0.23997012      -0.22993347      -0.79807647 
Si       1.00804751       2.18180145       1.98785588       14      -0.22993347      -0.23997012      -0.79807647 
Si       1.86880040       5.05864937       3.44938668       14       0.22993347      -0.23997012       0.79807647 
Si       2.18180145       1.00804751       5.26180087       14      -0.23997012      -0.22993347       0.79807647 
Si       3.57189437       4.74564832       1.63697249       14       0.23997012       0.22993347       0.79807647 
Si       3.88489542       0.69504645      -0.17544169       14      -0.22993347       0.23997012       0.79807647 
Si       4.74564832       3.57189437       5.61268425       14       0.22993347       0.23997012      -0.79807647 
Si       5.05864937       1.86880040       3.80027006       14      -0.23997012       0.22993347      -0.79807647 
12
Lattice="5.54936169214412 0.0 1.4598221728805817e-26 0.0 5.54936169214412 1.4598221728805817e-26 1.839375938940491e-26 1.839375938940491e-26 6.692227247004048" Properties=species:S:1:pos:R:3:Z:I:1:forces:R:3 stress="-0.042071422570175626 0.0 1.3673263654125393e-28 0.0 -0.042071422570175626 0.0 1.3673263654125393e-28 0.0 -0.01648838257415377" cutoff=-1.0 energy=-1954.7064403 nneightol=1.2 pbc="T T T"
Si       0.54813591       0.54813591      -0.00000000       14      -0.53897134      -0.53897134      -0.00000000 
Si      -0.54813591      -0.54813591       3.34611363       14       0.53897134       0.53897134       0.00000000 
Si       2.22654493       3.32281676       5.01917044       14       0.53897134      -0.53897134      -0.00000000 
Si       3.32281676       2.22654493       1.67305681       14      -0.53897134       0.53897134       0.00000000 
Si       0.71501976       3.73140078       0.04092143       14      -0.19635512       0.43210751       0.07621881 
Si       0.95671993       2.05966108       1.71397824       14       0.43210751       0.19635512       0.07621881 
Si       1.81796091       4.83434194       3.30519220       14      -0.43210751       0.19635512      -0.07621881 
Si       2.05966108       0.95671993       4.97824901       14       0.19635512       0.43210751      -0.07621881 
Si       3.48970061       4.59264176       1.63213538       14      -0.19635512      -0.43210751      -0.07621881 
Si       3.73140078       0.71501976      -0.04092143       14       0.43210751      -0.19635512      -0.07621881 
Si       4.59264176       3.48970061       5.06009187       14      -0.43210751      -0.19635512       0.07621881 
Si       4.83434194       1.81796091       3.38703505       14       0.19635512      -0.43210751       0.07621881 
12
Lattice="5.734651602485441 1.798161784753818e-54 1.8052103057584378e-26 4.0197155621381804e-54 5.734651602485441 1.8860374080649956e-26 2.2176270872990944e-26 2.3240341493290658e-26 6.647563223217319" Properties=species:S:1:pos:R:3:Z:I:1:forces:R:3 stress="0.007231771836247663 2.2208866022049196e-73 4.8760487876617607e-29 2.2208866022049196e-73 0.007231771836247663 6.78079873092385e-28 4.8760487876617607e-29 6.78079873092385e-28 0.016259428800165787" cutoff=-1.0 energy=-1955.09124754 nneightol=1.2 pbc="T T T"
Si       0.53140557       0.53140557      -0.00000000       14      -0.06978210      -0.06978210       0.00000000 
Si      -0.53140557      -0.53140557       3.32378162       14       0.06978210       0.06978210      -0.00000000 
Si       2.33592023       3.39873138       4.98567242       14       0.06978210      -0.06978210      -0.00000000 
Si       3.39873138       2.33592023       1.66189080       14      -0.06978210       0.06978210       0.00000000 
Si       0.72257414       3.88120203       0.03929933       14      -0.03442879       0.07045678      -0.19196068 
Si       1.01387623       2.14475166       1.70119013       14       0.07045678       0.03442879      -0.19196068 
Si       1.85344957       5.01207746       3.28448229       14      -0.07045678       0.03442879       0.19196068 
Si       2.14475166       1.01387623       4.94637309       14       0.03442879       0.07045678       0.19196068 
Si       3.58989995       4.72077538       1.62259147       14      -0.03442879      -0.07045678       0.19196068 
Si       3.88120203       0.72257414      -0.03929933       14       0.07045678      -0.03442879       0.19196068 
Si       4.72077538       3.58989995       5.02497175       14      -0.07045678      -0.03442879      -0.19196068 
Si       5.01207746       1.85344957       3.36308094       14       0.03442879      -0.07045678      -0.19196068 
12
Lattice="5.76163756394167 2.069448152091349e-53 1.7225988071134836e-26 6.095572534663739e-54 5.76163756394167 1.304788886111575e-26 2.0595902275017485e-26 1.4798775627137816e-26 6.522546309159703" Properties=species:S:1:pos:R:3:Z:I:1:forces:R:3 stress="0.004992384167674442 9.241030859874975e-46 3.6762832201701255e-30 9.241030859874975e-46 0.004992384167674441 1.2075695726139614e-18 3.6762832201701255e-30 1.2075695726139614e-18 0.004803974570048706" cutoff=-1.0 energy=-1955.13839287 nneightol=1.2 pbc="T T T"
Si       0.53233452       0.53233452      -0.00000000       14      -0.08473951      -0.08473951       0.00000000 
Si      -0.53233452      -0.53233452       3.26127316       14       0.08473951       0.08473951       0.00000000 
Si       2.34848425       3.41315331       4.89190973       14       0.08473951      -0.08473951       0.00000000 
Si       3.41315331       2.34848425       1.63063657       14      -0.08473951       0.08473951      -0.00000000 
Si       0.72569836       3.90363280       0.02744183       14      -0.07214354       0.06459314      -0.09857396 
Si       1.02281401       2.15512042       1.65807841       14       0.06459314       0.07214354      -0.09857396 
Si       1.85800477       5.03593921       3.23383133       14      -0.06459314       0.07214354       0.09857396 
Si       2.15512042       1.02281401       4.86446790       14       0.07214354       0.06459314       0.09857396 
Si       3.60651715       4.73882356       1.60319474       14      -0.07214354      -0.06459314       0.09857396 
Si       3.90363280       0.72569836      -0.02744183       14       0.06459314      -0.07214354       0.09857396 
Si       4.73882356       3.60651715       4.91935157       14      -0.06459314      -0.07214354      -0.09857396 
Si       5.03593921       1.85800477       3.28871498       14       0.07214354      -0.06459314      -0.09857396 
12
Lattice="5.760690475573926 3.576902300113786e-44 1.6442502405105516e-26 -1.1441515787968044e-44 5.760690475573926 -1.4951174319685335e-17 1.943003722102671e-26 -2.0967427990933092e-17 6.46715355731356" Properties=species:S:1:pos:R:3:Z:I:1:forces:R:3 stress="0.0005557048076429927 -3.152692576197169e-53 -7.818512649788907e-30 -3.152692576197169e-53 0.0005557048076429927 -1.3876906118513629e-27 -7.818512649788907e-30 -1.3876906118513629e-27 -0.0016239128710839519" cutoff=-1.0 energy=-1955.14977851 nneightol=1.2 pbc="T T T"
Si       0.52591954       0.52591954      -0.00000000       14      -0.01675034      -0.01675034       0.00000000 
Si      -0.52591954      -0.52591954       3.23357678       14       0.01675034       0.01675034      -0.00000000 
Si       2.35442569       3.40626479       4.85036517       14       0.01675034      -0.01675034       0.00000000 
Si       3.40626479       2.35442569       1.61678839       14      -0.01675034       0.01675034      -0.00000000 
Si       0.72180120       3.90772923       0.02374390       14      -0.05890535       0.00790698      -0.06409163 
Si       1.02738399       2.15854403       1.64053228       14       0.00790698       0.05890535      -0.06409163 
Si       1.85296125       5.03888927       3.20983289       14      -0.00790698       0.05890535       0.06409163 
Si       2.15854403       1.02738399       4.82662127       14       0.05890535       0.00790698       0.06409163 
Si       3.60214644       4.73330649       1.59304449       14      -0.05890535      -0.00790698       0.06409163 
Si       3.90772923       0.72180120      -0.02374390       14       0.00790698      -0.05890535       0.06409163 
Si       4.73330649       3.60214644       4.87410907       14      -0.00790698      -0.05890535      -0.06409163 
Si       5.03888927       1.85296125       3.25732067       14       0.05890535      -0.00790698      -0.06409163 
12
Lattice="5.759372688707632 3.9246490342367184e-44 1.6527524281756886e-26 -1.2226737475414816e-44 5.759372688707632 -1.634285895697379e-17 1.9565678374807895e-26 -2.3007253450184552e-17 6.470753319466665" Properties=species:S:1:pos:R:3:Z:I:1:forces:R:3 stress="0.00017569024728034867 -1.0589604057700818e-53 -7.066483830389971e-30 -1.0589604057700818e-53 0.00017569024728034867 1.3872359591510422e-27 -7.066483830389971e-30 1.3872359591510422e-27 -0.001712232178879626" cutoff=-1.0 energy=-1955.15214024 nneightol=1.2 pbc="T T T"
Si       0.52483366       0.52483366      -0.00000000       14      -0.00527995      -0.00527995       0.00000000 
Si      -0.52483366      -0.52483366       3.23537666       14       0.00527995       0.00527995      -0.00000000 
Si       2.35485268       3.40452001       4.85306499       14       0.00527995      -0.00527995       0.00000000 
Si       3.40452001       2.35485268       1.61768833       14      -0.00527995       0.00527995      -0.00000000 
Si       0.72041467       3.90804097       0.02062460       14      -0.05495272      -0.00881189      -0.05477887 
Si       1.02835462       2.15927167       1.63831293       14      -0.00881189       0.05495272      -0.05477887 
Si       1.85133172       5.03895802       3.21475206       14       0.00881189       0.05495272       0.05477887 
Si       2.15927167       1.02835462       4.83244039       14       0.05495272      -0.00881189       0.05477887 
Si       3.60010102       4.73101807       1.59706373       14      -0.05495272       0.00881189       0.05477887 
Si       3.90804097       0.72041467      -0.02062460       14      -0.00881189      -0.05495272       0.05477887 
Si       4.73101807       3.60010102       4.87368959       14       0.00881189      -0.05495272      -0.05477887 
Si       5.03895802       1.85133172       3.25600126       14       0.05495272       0.00881189      -0.05477887 
12
Lattice="5.756507464897577 4.573014846041993e-44 1.6826912765013842e-26 -1.3637731219930543e-44 5.756507464897577 -1.8907520662590373e-17 2.0030597987672334e-26 -2.6809320563805607e-17 6.485835676687353" Properties=species:S:1:pos:R:3:Z:I:1:forces:R:3 stress="-0.00014717221152138035 1.1055081046633142e-45 -4.418906742351433e-30 1.1055081046633142e-45 -0.00014717221152138035 3.109853272039959e-19 -4.418906742351433e-30 3.109853272039959e-19 -0.0012430620393982781" cutoff=-1.0 energy=-1955.15600875 nneightol=1.2 pbc="T T T"
Si       0.52387256       0.52387256      -0.00000000       14       0.00154179       0.00154179      -0.00000000 
Si      -0.52387256      -0.52387256       3.24291784       14      -0.00154179      -0.00154179       0.00000000 
Si       2.35438117       3.40212630       4.86437676       14      -0.00154179       0.00154179      -0.00000000 
Si       3.40212630       2.35438117       1.62145892       14       0.00154179      -0.00154179       0.00000000 
Si       0.71796202       3.90753100       0.01385732       14      -0.05022316      -0.02987864      -0.03544746 
Si       1.02927726       2.16029171       1.63531624       14      -0.02987864       0.05022316      -0.03544746 
Si       1.84897646       5.03854545       3.22906052       14       0.02987864       0.05022316       0.03544746 
Si       2.16029171       1.02927726       4.85051944       14       0.05022316      -0.02987864       0.03544746 
Si       3.59621576       4.72723020       1.60760160       14      -0.05022316       0.02987864       0.03544746 
Si       3.90753100       0.71796202      -0.01385732       14      -0.02987864      -0.05022316       0.03544746 
Si       4.72723020       3.59621576       4.87823408       14       0.02987864      -0.05022316      -0.03544746 
Si       5.03854545       1.84897646       3.25677516       14       0.05022316       0.02987864      -0.03544746 
12
Lattice="5.75126431107449 5.404218206176219e-44 1.744661486655225e-26 -4.239912138435921e-44 5.75126431107449 -3.090303024908155e-17 2.0989909620322018e-26 -4.408251586769226e-17 6.518077713788542" Properties=species:S:1:pos:R:3:Z:I:1:forces:R:3 stress="-0.0005043165777676558 -8.556422302376635e-54 1.7254385063199367e-30 -8.556422302376635e-54 -0.0005043165777676558 1.0343291550835223e-27 1.7254385063199367e-30 1.0343291550835223e-27 2.4516994675824427e-05" cutoff=-1.0 energy=-1955.15943513 nneightol=1.2 pbc="T T T"
Si       0.52269813       0.52269813      -0.00000000       14       0.00351459       0.00351459      -0.00000000 
Si      -0.52269813      -0.52269813       3.25903886       14      -0.00351459      -0.00351459       0.00000000 
Si       2.35293402       3.39833029       4.88855829       14      -0.00351459       0.00351459      -0.00000000 
Si       3.39833029       2.35293402       1.62951943       14       0.00351459      -0.00351459       0.00000000 
Si       0.71306934       3.90530507       0.00111357       14      -0.04019079      -0.05541556      -0.00080624 
Si       1.02967290       2.16256281       1.63063299       14      -0.05541556       0.04019079      -0.00080624 
Si       1.84595925       5.03819497       3.25792530       14       0.05541556       0.04019079       0.00080624 
Si       2.16256281       1.02967290       4.88744472       14       0.04019079      -0.05541556       0.00080624 
Si       3.58870150       4.72159141       1.62840586       14      -0.04019079       0.05541556       0.00080624 
Si       3.90530507       0.71306934      -0.00111357       14      -0.05541556      -0.04019079       0.00080624 
Si       4.72159141       3.58870150       4.88967185       14       0.05541556      -0.04019079      -0.00080624 
Si       5.03819497       1.84595925       3.26015242       14       0.04019079       0.05541556      -0.00080624 
12
Lattice="5.751352883175502 5.552473546349273e-44 1.7538680117030673e-26 -4.553850211423779e-44 5.751352883175502 -3.233928448052241e-17 2.11233834153627e-26 -4.6126433277253814e-17 6.522112554924919" Properties=species:S:1:pos:R:3:Z:I:1:forces:R:3 stress="-0.0003420826059798612 4.239004566027228e-65 2.136222626588691e-30 4.239004566027228e-65 -0.0003420826059798612 8.457173518422691e-75 2.136222626588691e-30 8.457173518422691e-75 0.00024689460117346496" cutoff=-1.0 energy=-1955.16011681 nneightol=1.2 pbc="T T T"
Si       0.52253270       0.52253270      -0.00000000       14       0.00091069       0.00091069      -0.00000000 
Si      -0.52253270      -0.52253270       3.26105628       14      -0.00091069      -0.00091069       0.00000000 
Si       2.35314373       3.39820915       4.89158442       14      -0.00091069       0.00091069      -0.00000000 
Si       3.39820915       2.35314373       1.63052814       14       0.00091069      -0.00091069       0.00000000 
Si       0.71179378       3.90460264      -0.00067325       14      -0.03500332      -0.05051637       0.00221220 
Si       1.02892619       2.16388266       1.62985488       14      -0.05051637       0.03500332       0.00221220 
Si       1.84675025       5.03955911       3.26172954       14       0.05051637       0.03500332      -0.00221220 
Si       2.16388266       1.02892619       4.89225767       14       0.03500332      -0.05051637      -0.00221220 
Si       3.58747022       4.72242669       1.63120139       14      -0.03500332       0.05051637      -0.00221220 
Si       3.90460264       0.71179378       0.00067325       14      -0.05051637      -0.03500332      -0.00221220 
Si       4.72242669       3.58747022       4.89091116       14       0.05051637      -0.03500332       0.00221220 
Si       5.03955911       1.84675025       3.26038302       14       0.03500332       0.05051637       0.00221220 
12
Lattice="5.751760955805469 5.739541627906362e-44 1.7606758841819624e-26 -4.945427913059771e-44 5.751760955805469 -3.409709019546823e-17 2.1216943466308406e-26 -4.857847810140431e-17 6.524917646255258" Properties=species:S:1:pos:R:3:Z:I:1:forces:R:3 stress="-0.00013851896547214035 3.4586924716992146e-53 2.0418441791535358e-30 3.4586924716992146e-53 -0.00013851896547214035 -1.3775408969104404e-27 2.0418441791535358e-30 -1.3775408969104404e-27 0.00038030316255240477" cutoff=-1.0 energy=-1955.16126363 nneightol=1.2 pbc="T T T"
Si       0.52205645       0.52205645      -0.00000000       14      -0.00229079      -0.00229079       0.00000000 
Si      -0.52205645      -0.52205645       3.26245883       14       0.00229079       0.00229079      -0.00000000 
Si       2.35382402       3.39793693       4.89368824       14       0.00229079      -0.00229079       0.00000000 
Si       3.39793693       2.35382402       1.63122941       14      -0.00229079       0.00229079      -0.00000000 
Si       0.70951615       3.90300132      -0.00244893       14      -0.02384514      -0.03689825       0.00328537 
Si       1.02712084       2.16636432       1.62878048       14      -0.03689825       0.02384514       0.00328537 
Si       1.84875963       5.04224480       3.26490776       14       0.03689825       0.02384514      -0.00328537 
Si       2.16636432       1.02712084       4.89613717       14       0.02384514      -0.03689825      -0.00328537 
Si       3.58539663       4.72464012       1.63367834       14      -0.02384514       0.03689825      -0.00328537 
Si       3.90300132       0.70951615       0.00244893       14      -0.03689825      -0.02384514      -0.00328537 
Si       4.72464012       3.58539663       4.89123930       14       0.03689825      -0.02384514       0.00328537 
Si       5.04224480       1.84875963       3.26000989       14       0.02384514       0.03689825       0.00328537 
12
Lattice="5.752931789131038 6.066381321797961e-44 1.762936286243596e-26 -5.592411598899986e-44 5.752931789131038 -3.700519947861279e-17 2.123198995764027e-26 -5.254887945185324e-17 6.524874444530893" Properties=species:S:1:pos:R:3:Z:I:1:forces:R:3 stress="0.00011536794917855564 5.765054139215641e-54 6.0804396078839655e-31 5.765054139215641e-54 0.00011536794917855564 2.955390593521831e-75 6.0804396078839655e-31 2.955390593521831e-75 0.00023494641003687667" cutoff=-1.0 energy=-1955.162434 nneightol=1.2 pbc="T T T"
Si       0.52069322       0.52069322      -0.00000000       14      -0.00582484      -0.00582484       0.00000000 
Si      -0.52069322      -0.52069322       3.26243723       14       0.00582484       0.00582484      -0.00000000 
Si       2.35577266       3.39715912       4.89365584       14       0.00582484      -0.00582484       0.00000000 
Si       3.39715912       2.35577266       1.63121861       14      -0.00582484       0.00582484      -0.00000000 
Si       0.70468334       3.89932408      -0.00467956       14       0.00208942      -0.00386521       0.00140864 
Si       1.02285818       2.17178255       1.62653905       14      -0.00386521      -0.00208942       0.00140864 
Si       1.85360771       5.04824845       3.26711678       14       0.00386521      -0.00208942      -0.00140864 
Si       2.17178255       1.02285818       4.89833539       14      -0.00208942      -0.00386521      -0.00140864 
Si       3.58114924       4.73007361       1.63589816       14       0.00208942       0.00386521      -0.00140864 
Si       3.89932408       0.70468334       0.00467956       14      -0.00386521       0.00208942      -0.00140864 
Si       4.73007361       3.58114924       4.88897628       14       0.00386521       0.00208942       0.00140864 
Si       5.04824845       1.85360771       3.25775766       14      -0.00208942       0.00386521       0.00140864 
12
Lattice="5.753040368229879 6.044137980230726e-44 1.7583957583377208e-26 -5.529776566220523e-44 5.753040368229879 -3.6732412165281373e-17 2.1163720974162168e-26 -5.213733716267088e-17 6.52265475260161" Properties=species:S:1:pos:R:3:Z:I:1:forces:R:3 stress="5.292634105978192e-05 -1.1220340945633832e-64 -2.755276101037639e-27 -1.1220340945633832e-64 5.292634105978192e-05 -5.5108493949911634e-27 -2.755276101037639e-27 -5.5108493949911634e-27 7.680113940761459e-05" cutoff=-1.0 energy=-1955.16246117 nneightol=1.2 pbc="T T T"
Si       0.52048372       0.52048372      -0.00000000       14      -0.00425812      -0.00425812       0.00000000 
Si      -0.52048372      -0.52048372       3.26132738       14       0.00425812       0.00425812      -0.00000000 
Si       2.35603646       3.39700390       4.89199107       14       0.00425812      -0.00425812       0.00000000 
Si       3.39700390       2.35603646       1.63066369       14      -0.00425812       0.00425812      -0.00000000 
Si       0.70465277       3.89915207      -0.00413937       14       0.00315771      -0.00211510      -0.00020491 
Si       1.02263188       2.17186741       1.62652431       14      -0.00211510      -0.00315771      -0.00020491 
Si       1.85388830       5.04838760       3.26546675       14       0.00211510      -0.00315771       0.00020491 
Si       2.17186741       1.02263188       4.89613044       14      -0.00315771      -0.00211510       0.00020491 
Si       3.58117296       4.73040849       1.63480306       14       0.00315771       0.00211510       0.00020491 
Si       3.89915207       0.70465277       0.00413937       14      -0.00211510       0.00315771       0.00020491 
Si       4.73040849       3.58117296       4.88785169       14       0.00211510       0.00315771      -0.00020491 
Si       5.04838760       1.85388830       3.25718800       14      -0.00315771       0.00211510      -0.00020491 
12
Lattice="5.753049552819371 6.023746179368199e-44 5.565658031358385e-26 2.4981739933686532e-43 5.753049552819371 -3.649751273137133e-17 7.447363432494287e-26 -5.179282472489094e-17 6.5212372788593775" Properties=species:S:1:pos:R:3:Z:I:1:forces:R:3 stress="-4.155907290121025e-06 -1.1242427859067646e-65 1.10236771592445e-26 -1.1242427859067646e-65 -4.155907290121025e-06 -9.22785768263084e-22 1.10236771592445e-26 -9.22785768263084e-22 -3.0476420552778174e-05" cutoff=-1.0 energy=-1955.16247004 nneightol=1.2 pbc="T T T"
Si       0.52030480       0.52030480      -0.00000000       14      -0.00287125      -0.00287125       0.00000000 
Si      -0.52030480      -0.52030480       3.26061864       14       0.00287125       0.00287125      -0.00000000 
Si       2.35621997       3.39682958       4.89092796       14       0.00287125      -0.00287125       0.00000000 
Si       3.39682958       2.35621997       1.63030932       14      -0.00287125       0.00287125      -0.00000000 
Si       0.70477654       3.89905340      -0.00376693       14       0.00316761      -0.00168377      -0.00116153 
Si       1.02252862       2.17174823       1.62654239       14      -0.00168377      -0.00316761      -0.00116153 
Si       1.85399615       5.04827301       3.26438558       14       0.00168377      -0.00316761       0.00116153 
Si       2.17174823       1.02252862       4.89469489       14      -0.00316761      -0.00168377       0.00116153 
Si       3.58130132       4.73052093       1.63407625       14       0.00316761       0.00168377       0.00116153 
Si       3.89905340       0.70477654       0.00376693       14      -0.00168377       0.00316761       0.00116153 
Si       4.73052093       3.58130132       4.88716103       14       0.00168377       0.00316761      -0.00116153 
Si       5.04827301       1.85399615       3.25685170       14      -0.00316761       0.00168377      -0.00116153 
12
Lattice="5.753041984575897 6.004996240222048e-44 -6.184522823074096e-26 -6.824847845064954e-43 5.753041984575897 -3.641378754117025e-17 -9.009826166568592e-26 -5.1672340430075053e-17 6.520864905613805" Properties=species:S:1:pos:R:3:Z:I:1:forces:R:3 stress="-2.4626583272954893e-05 1.697876553159769e-64 8.383418847540198e-31 1.697876553159769e-64 -2.4626583272954893e-05 1.3780901160494051e-27 8.383418847540198e-31 1.3780901160494051e-27 -6.639599668639108e-05" cutoff=-1.0 energy=-1955.16247526 nneightol=1.2 pbc="T T T"
Si       0.52016578       0.52016578      -0.00000000       14      -0.00216439      -0.00216439       0.00000000 
Si      -0.52016578      -0.52016578       3.26043246       14       0.00216439       0.00216439      -0.00000000 
Si       2.35635520       3.39668678       4.89064868       14       0.00216439      -0.00216439       0.00000000 
Si       3.39668678       2.35635520       1.63021622       14      -0.00216439       0.00216439      -0.00000000 
Si       0.70488551       3.89895941      -0.00369053       14       0.00293059      -0.00149554      -0.00139423 
Si       1.02243842       2.17163548       1.62652569       14      -0.00149554      -0.00293059      -0.00139423 
Si       1.85408257       5.04815648       3.26412299       14       0.00149554      -0.00293059       0.00139423 
Si       2.17163548       1.02243842       4.89433921       14      -0.00293059      -0.00149554       0.00139423 
Si       3.58140650       4.73060357       1.63390675       14       0.00293059       0.00149554       0.00139423 
Si       3.89895941       0.70488551       0.00369053       14      -0.00149554       0.00293059       0.00139423 
Si       4.73060357       3.58140650       4.88695815       14       0.00149554       0.00293059      -0.00139423 
Si       5.04815648       1.85408257       3.25674192       14      -0.00293059       0.00149554      -0.00139423 
12
Lattice="5.753018873414168 5.998513057184396e-44 -1.5426580063026152e-25 -1.4152727091578608e-42 5.753018873414168 -3.636167939615546e-17 -2.195601951870353e-25 -5.160000828398881e-17 6.520780256113504" Properties=species:S:1:pos:R:3:Z:I:1:forces:R:3 stress="-4.023929833083114e-05 -6.5093446061698906e-46 2.5863855900049026e-30 -6.5093446061698906e-46 -4.023929833083114e-05 2.2930808041233114e-20 2.5863855900049026e-30 2.2930808041233114e-20 -9.111195530929305e-05" cutoff=-1.0 energy=-1955.16248422 nneightol=1.2 pbc="T T T"
Si       0.51993280       0.51993280      -0.00000000       14      -0.00129034      -0.00129034       0.00000000 
Si      -0.51993280      -0.51993280       3.26039013       14       0.00129034       0.00129034      -0.00000000 
Si       2.35657663       3.39644224       4.89058519       14       0.00129034      -0.00129034       0.00000000 
Si       3.39644224       2.35657663       1.63019506       14      -0.00129034       0.00129034      -0.00000000 
Si       0.70507047       3.89877699      -0.00371487       14       0.00239883      -0.00117705      -0.00144236 
Si       1.02226754       2.17143896       1.62648019       14      -0.00117705      -0.00239883      -0.00144236 
Si       1.85424189       5.04794840       3.26410500       14       0.00117705      -0.00239883       0.00144236 
Si       2.17143896       1.02226754       4.89430007       14      -0.00239883      -0.00117705       0.00144236 
Si       3.58157992       4.73075133       1.63390993       14       0.00239883       0.00117705       0.00144236 
Si       3.89877699       0.70507047       0.00371487       14      -0.00117705       0.00239883       0.00144236 
Si       4.73075133       3.58157992       4.88687032       14       0.00117705       0.00239883      -0.00144236 
Si       5.04794840       1.85424189       3.25667525       14      -0.00239883       0.00117705      -0.00144236 
12
Lattice="5.752932908461398 5.652824982375673e-44 -5.210232090760731e-25 -4.305284795210317e-42 5.752932908461398 -3.705725296545923e-17 -7.333471829919824e-25 -5.2587391878017315e-17 6.521560671601825" Properties=species:S:1:pos:R:3:Z:I:1:forces:R:3 stress="-4.889376654014526e-05 5.092227521778126e-63 8.083999195268026e-30 5.092227521778126e-63 -4.889376654014526e-05 3.024884817332942e-72 8.083999195268026e-30 3.024884817332942e-72 -9.399049222173437e-05" cutoff=-1.0 energy=-1955.16250101 nneightol=1.2 pbc="T T T"
Si       0.51927088       0.51927088      -0.00000000       14       0.00058557       0.00058557      -0.00000000 
Si      -0.51927088      -0.51927088       3.26078034       14      -0.00058557      -0.00058557       0.00000000 
Si       2.35719557       3.39573734       4.89117051       14      -0.00058557       0.00058557      -0.00000000 
Si       3.39573734       2.35719557       1.63039017       14       0.00058557      -0.00058557       0.00000000 
Si       0.70560254       3.89820651      -0.00406820       14       0.00062869      -0.00022568      -0.00094706 
Si       1.02174005       2.17086391       1.62632196       14      -0.00022568      -0.00062869      -0.00094706 
Si       1.85472640       5.04733037       3.26484854       14       0.00022568      -0.00062869       0.00094706 
Si       2.17086391       1.02174005       4.89523871       14      -0.00062869      -0.00022568       0.00094706 
Si       3.58206900       4.73119286       1.63445837       14       0.00062869       0.00022568       0.00094706 
Si       3.89820651       0.70560254       0.00406820       14      -0.00022568       0.00062869       0.00094706 