12
Lattice="5.752902431146848 5.686238680531725e-44 -6.6258096296124615e-25 -5.4273037938468426e-42 5.752902431146848 -3.723336839406279e-17 -9.317143486556189e-25 -5.2844344197032727e-17 6.52240472496957" Properties=species:S:1:pos:R:3:Z:I:1:forces:R:3 cutoff=-1.0 stress="-2.630204167386062e-05 -9.488490199738295e-64 5.1556434903754404e-30 -9.488490199738295e-64 -2.630204167386062e-05 2.4319240426834707e-72 5.1556434903754404e-30 2.4319240426834707e-72 -4.8540008579563044e-05" Minim_Constant_Volume=T nneightol=1.2 pbc="T T T" energy=-1955.16250421 Minim_Hydrostatic_Strain=F
Si       0.51914339       0.51914339      -0.00000000       14       0.00052951       0.00052951      -0.00000000 
Si      -0.51914339      -0.51914339       3.26120237       14      -0.00052951      -0.00052951       0.00000000 
Si       2.35730782       3.39559461       4.89180355       14      -0.00052951       0.00052951      -0.00000000 
Si       3.39559461       2.35730782       1.63060118       14       0.00052951      -0.00052951       0.00000000 
Si       0.70571028       3.89806012      -0.00432828       14       0.00010851      -0.00000249      -0.00042594 
Si       1.02160890       2.17074093       1.62627290       14      -0.00000249      -0.00010851      -0.00042594 
Si       1.85484231       5.04719215       3.26553065       14       0.00000249      -0.00010851       0.00042594 
Si       2.17074093       1.02160890       4.89613183       14      -0.00010851      -0.00000249       0.00042594 
Si       3.58216150       4.73129353       1.63492946       14       0.00010851       0.00000249       0.00042594 
Si       3.89806012       0.70571028       0.00432828       14      -0.00000249       0.00010851       0.00042594 
Si       4.73129353       3.58216150       4.88747526       14       0.00000249       0.00010851      -0.00042594 
Si       5.04719215       1.85484231       3.25687407       14      -0.00010851       0.00000249      -0.00042594 
12
Lattice="5.724533309007271 5.658197986599584e-44 -7.133334850831773e-25 -5.00624311038862e-42 5.724533309007271 -3.666130192724924e-17 -9.961913444187199e-25 -5.2583754412157516e-17 6.422192221095282" Properties=species:S:1:pos:R:3:Z:I:1:forces:R:3 cutoff=-1.0 stress="-0.013535925319522005 5.460663895111063e-61 1.944824914780891e-27 5.460663895111063e-61 -0.013535925319522005 1.4062320028117805e-27 1.944824914780891e-27 1.4062320028117805e-27 -0.013513545021715942" Minim_Constant_Volume=T nneightol=1.2 pbc="T T T" energy=-1955.12711979 Minim_Hydrostatic_Strain=F
Si       0.52302585       0.52302585      -0.00000000       14       0.00012073       0.00012073      -0.00000000 
Si      -0.52302585      -0.52302585       3.21109612       14      -0.00012073      -0.00012073       0.00000000 
Si       2.33924080       3.38529251       4.81664417       14      -0.00012073       0.00012073      -0.00000000 
Si       3.38529251       2.33924080       1.60554805       14       0.00012073      -0.00012073       0.00000000 
Si       0.70091031       3.88547609       0.01827002       14      -0.00006915       0.00012316       0.00012356 
Si       1.02320943       2.16135634       1.62381808       14       0.00012316       0.00006915       0.00012356 
Si       1.83905722       5.02362300       3.19282609       14      -0.00012316       0.00006915      -0.00012356 
Si       2.16135634       1.02320943       4.79837414       14       0.00006915       0.00012316      -0.00012356 
Si       3.56317697       4.70132388       1.58727803       14      -0.00006915      -0.00012316      -0.00012356 
Si       3.88547609       0.70091031      -0.01827002       14       0.00012316      -0.00006915      -0.00012356 
Si       4.70132388       3.56317697       4.83491419       14      -0.00012316      -0.00006915       0.00012356 
Si       5.02362300       1.83905722       3.22936613       14       0.00006915      -0.00012316       0.00012356 
12
Lattice="5.705184298414329 6.141236104476867e-43 -7.615248833117553e-25 -4.4551179807869696e-42 5.705184298414329 -3.9614096623641916e-17 -1.0627378296224746e-24 -5.656885694030887e-17 6.299657582055081" Properties=species:S:1:pos:R:3:Z:I:1:forces:R:3 cutoff=-1.0 stress="-0.02878273785513349 -2.5937852328589797e-43 1.0579046404923567e-27 -2.5937852328589797e-43 -0.02878273785513349 7.048998014386644e-18 1.0579046404923567e-27 7.048998014386644e-18 -0.02875013557703635" Minim_Constant_Volume=T nneightol=1.2 pbc="T T T" energy=-1955.01313166 Minim_Hydrostatic_Strain=F
Si       0.52796311       0.52796311      -0.00000000       14       0.00058162       0.00058162      -0.00000000 
Si      -0.52796311      -0.52796311       3.14982880       14      -0.00058162      -0.00058162       0.00000000 
Si       2.32462903       3.38055526       4.72474319       14      -0.00058162       0.00058162      -0.00000000 
Si       3.38055526       2.32462903       1.57491439       14       0.00058162      -0.00058162       0.00000000 
Si       0.69739838       3.88048654       0.04218621       14       0.00028667       0.00041295       0.00011186 
Si       1.02789438       2.15519376       1.61710060       14       0.00041295      -0.00028667       0.00011186 
Si       1.82469776       5.00778591       3.10764259       14      -0.00041295      -0.00028667      -0.00011186 
Si       2.15519376       1.02789438       4.68255698       14      -0.00028667       0.00041295      -0.00011186 
Si       3.54999054       4.67728991       1.53272819       14       0.00028667      -0.00041295      -0.00011186 
Si       3.88048654       0.69739838      -0.04218621       14       0.00041295       0.00028667      -0.00011186 
Si       4.67728991       3.54999054       4.76692940       14      -0.00041295       0.00028667       0.00011186 
Si       5.00778591       1.82469776       3.19201499       14      -0.00028667      -0.00041295       0.00011186 
12
Lattice="5.693896533534261 3.0383200011720396e-41 -7.4157755409135815e-25 -1.6889130503940962e-42 5.693896533534261 -2.3621165292664255e-16 -1.0579172583735556e-24 -2.750203244270017e-16 6.157735908221002" Properties=species:S:1:pos:R:3:Z:I:1:forces:R:3 cutoff=-1.0 stress="-0.045557637070433255 -1.1851227762845849e-51 1.3229965517085424e-27 -1.1851227762845849e-51 -0.045557637070433255 1.9621239415286738e-70 1.3229965517085424e-27 1.9621239415286738e-70 -0.04553698969111875" Minim_Constant_Volume=T nneightol=1.2 pbc="T T T" energy=-1954.81458624 Minim_Hydrostatic_Strain=F
Si       0.53558524       0.53558524      -0.00000000       14       0.00040003       0.00040003      -0.00000000 
Si      -0.53558524      -0.53558524       3.07886796       14      -0.00040003      -0.00040003       0.00000000 
Si       2.31136302       3.38253352       4.61830193       14      -0.00040003       0.00040003      -0.00000000 
Si       3.38253352       2.31136302       1.53943397       14       0.00040003      -0.00040003       0.00000000 
Si       0.69532692       3.88434336       0.06926007       14       0.00045146       0.00042708      -0.00069217 
Si       1.03739509       2.15162134       1.60869405       14       0.00042708      -0.00045146      -0.00069217 
Si       1.80955317       4.99856961       3.00960789       14      -0.00042708      -0.00045146       0.00069217 
Si       2.15162134       1.03739509       4.54904186       14      -0.00045146       0.00042708       0.00069217 
Si       3.54227520       4.65650144       1.47017390       14       0.00045146      -0.00042708       0.00069217 
Si       3.88434336       0.69532692      -0.06926007       14       0.00042708       0.00045146       0.00069217 
Si       4.65650144       3.54227520       4.68756201       14      -0.00042708       0.00045146      -0.00069217 
Si       4.99856961       1.80955317       3.14812802       14      -0.00045146      -0.00042708      -0.00069217 
12
Lattice="5.672805065732825 3.0057512368878985e-41 -7.389272767085006e-25 -2.3515105437659197e-42 5.672805065732825 -2.386645706380076e-16 -1.0660772628997895e-24 -2.818134392996005e-16 6.036382516120377" Properties=species:S:1:pos:R:3:Z:I:1:forces:R:3 cutoff=-1.0 stress="-0.06626644067675398 -1.1591108275829026e-61 1.9386346561664238e-27 -1.1591108275829026e-61 -0.06626644067675398 4.800332013723055e-70 1.9386346561664238e-27 4.800332013723055e-70 -0.06633131663938839" Minim_Constant_Volume=T nneightol=1.2 pbc="T T T" energy=-1954.51524546 Minim_Hydrostatic_Strain=F
Si       0.54328585       0.54328585      -0.00000000       14       0.00022235       0.00022235      -0.00000000 
Si      -0.54328585      -0.54328585       3.01819126       14      -0.00022235      -0.00022235       0.00000000 
Si       2.29311668       3.37968839       4.52728689       14      -0.00022235       0.00022235      -0.00000000 
Si       3.37968839       2.29311668       1.50909563       14       0.00022235      -0.00022235       0.00000000 
Si       0.69306851       3.88189373       0.09594855       14       0.00104377       0.00076836      -0.00004151 
Si       1.04549119       2.14333402       1.60504417       14       0.00076836      -0.00104377      -0.00004151 
Si       1.79091134       4.97973656       2.92224272       14      -0.00076836      -0.00104377       0.00004151 
Si       2.14333402       1.04549119       4.43133834       14      -0.00104377       0.00076836       0.00004151 
Si       3.52947105       4.62731387       1.41314708       14       0.00104377      -0.00076836       0.00004151 
Si       3.88189373       0.69306851      -0.09594855       14       0.00076836       0.00104377       0.00004151 
Si       4.62731387       3.52947105       4.62323543       14      -0.00076836       0.00104377      -0.00004151 
Si       4.97973656       1.79091134       3.11413980       14      -0.00104377      -0.00076836      -0.00004151 
12
Lattice="5.64201006613553 3.1675802633515037e-41 -7.750266299816598e-25 7.603518890619262e-43 5.64201006613553 -2.395057962899413e-16 -1.112024500026913e-24 -2.852260268713588e-16 5.933271027462936" Properties=species:S:1:pos:R:3:Z:I:1:forces:R:3 cutoff=-1.0 stress="-0.09058113575793247 1.0221279866735397e-42 -4.3772839863481014e-27 1.0221279866735397e-42 -0.09058113575793247 2.1153783461755216e-17 -4.3772839863481014e-27 2.1153783461755216e-17 -0.09059151001451532" Minim_Constant_Volume=T nneightol=1.2 pbc="T T T" energy=-1954.09408858 Minim_Hydrostatic_Strain=F
Si       0.55321057       0.55321057      -0.00000000       14       0.00025486       0.00025486      -0.00000000 
Si      -0.55321057      -0.55321057       2.96663552       14      -0.00025486      -0.00025486       0.00000000 
Si       2.26779445       3.37421561       4.44995327       14      -0.00025486       0.00025486      -0.00000000 
Si       3.37421561       2.26779445       1.48331775       14       0.00025486      -0.00025486       0.00000000 
Si       0.69107749       3.87398612       0.12781562       14       0.00008905       0.00013139       0.00071299 
Si       1.05298108       2.12992754       1.61113337       14       0.00013139      -0.00008905       0.00071299 
Si       1.76802394       4.95093258       2.83881990       14      -0.00013139      -0.00008905      -0.00071299 
Si       2.12992754       1.05298108       4.32213765       14      -0.00008905       0.00013139      -0.00071299 
Si       3.51208253       4.58902898       1.35550214       14       0.00008905      -0.00013139      -0.00071299 
Si       3.87398612       0.69107749      -0.12781562       14       0.00013139       0.00008905      -0.00071299 
Si       4.58902898       3.51208253       4.57776889       14      -0.00013139       0.00008905       0.00071299 
Si       4.95093258       1.76802394       3.09445113       14      -0.00008905      -0.00013139       0.00071299 
12
Lattice="5.782611905326547 -2.0022799567739074e-43 -6.861572878317859e-25 -5.69294135095802e-42 5.782611905326547 -3.8108718319338326e-17 -9.524594081881169e-25 -5.3566080679592463e-17 6.616668364955094" Properties=species:S:1:pos:R:3:Z:I:1:forces:R:3 cutoff=-1.0 stress="0.010763732872958526 -6.366411579926277e-53 -4.835378059006078e-28 -6.366411579926277e-53 0.010763732872958526 3.3779791064932025e-28 -4.835378059006078e-28 3.3779791064932025e-28 0.01078676630624313" Minim_Constant_Volume=T nneightol=1.2 pbc="T T T" energy=-1955.13262325 Minim_Hydrostatic_Strain=F
Si       0.51445375       0.51445375      -0.00000000       14       0.00012527       0.00012527      -0.00000000 
Si      -0.51445375      -0.51445375       3.30833419       14      -0.00012527      -0.00012527       0.00000000 
Si       2.37685219       3.40575971       4.96250128       14      -0.00012527       0.00012527      -0.00000000 
Si       3.40575971       2.37685219       1.65416709       14       0.00012527      -0.00012527       0.00000000 
Si       0.70913670       3.91080447      -0.02950728       14      -0.00003010       0.00009802      -0.00003358 
Si       1.01949851       2.18216925       1.62465981       14       0.00009802       0.00003010      -0.00003358 
Si       1.87180744       5.07347521       3.33784147       14      -0.00009802       0.00003010       0.00003358 
Si       2.18216925       1.01949851       4.99200856       14       0.00003010       0.00009802       0.00003358 
Si       3.60044265       4.76311340       1.68367437       14      -0.00003010      -0.00009802       0.00003358 
Si       3.91080447       0.70913670       0.02950728       14       0.00009802      -0.00003010       0.00003358 
Si       4.76311340       3.60044265       4.93299400       14      -0.00009802      -0.00003010      -0.00003358 
Si       5.07347521       1.87180744       3.27882690       14       0.00003010      -0.00009802      -0.00003358 
12
Lattice="5.812264865964802 -2.3489750047609946e-42 -6.485808611059641e-25 -6.464534652754406e-42 5.812264865964802 -2.3490172488315038e-17 -9.03566708722022e-25 -3.644677843866768e-17 6.709089391202022" Properties=species:S:1:pos:R:3:Z:I:1:forces:R:3 cutoff=-1.0 stress="0.019325755699324116 1.1677120397004595e-43 4.55593323523577e-28 1.1677120397004595e-43 0.019325755699324116 4.960469022015201e-18 4.55593323523577e-28 4.960469022015201e-18 0.019353714709967166" Minim_Constant_Volume=T nneightol=1.2 pbc="T T T" energy=-1955.0501715 Minim_Hydrostatic_Strain=F
Si       0.50818985       0.50818985      -0.00000000       14       0.00053479       0.00053479      -0.00000000 
Si      -0.50818985      -0.50818985       3.35454470       14      -0.00053479      -0.00053479       0.00000000 
Si       2.39794257       3.41432229       5.03181705       14      -0.00053479       0.00053479      -0.00000000 
Si       3.41432229       2.39794257       1.67727235       14       0.00053479      -0.00053479       0.00000000 
Si       0.71145605       3.92192828      -0.05740280       14       0.00053471       0.00058266      -0.00042616 
Si       1.01579584       2.19467637       1.61986955       14       0.00058266      -0.00053471      -0.00042616 
Si       1.89033659       5.10080881       3.41194750       14      -0.00058266      -0.00053471       0.00042616 
Si       2.19467637       1.01579584       5.08921984       14      -0.00053471       0.00058266       0.00042616 
Si       3.61758849       4.79646903       1.73467514       14       0.00053471      -0.00058266       0.00042616 
Si       3.92192828       0.71145605       0.05740280       14       0.00058266       0.00053471       0.00042616 
Si       4.79646903       3.61758849       4.97441425       14      -0.00058266       0.00053471      -0.00042616 
Si       5.10080881       1.89033659       3.29714189       14      -0.00053471      -0.00058266      -0.00042616 
12
Lattice="5.836006431482996 2.1769943265677306e-42 -6.318256822349788e-25 -5.4818553828279764e-42 5.836006431482996 -5.514906136593371e-17 -8.76361842437116e-25 -7.297789829128192e-17 6.812883867214417" Properties=species:S:1:pos:R:3:Z:I:1:forces:R:3 cutoff=-1.0 stress="0.02444675259422106 -5.698447416648523e-53 -1.1466532583712902e-27 -5.698447416648523e-53 0.02444675259422106 -5.3853499053141077e-70 -1.1466532583712902e-27 -5.3853499053141077e-70 0.024479766057359062" Minim_Constant_Volume=T nneightol=1.2 pbc="T T T" energy=-1954.9305249 Minim_Hydrostatic_Strain=F
Si       0.49839995       0.49839995      -0.00000000       14       0.00020801       0.00020801      -0.00000000 
Si      -0.49839995      -0.49839995       3.40644194       14      -0.00020801      -0.00020801       0.00000000 
Si       2.41960326       3.41640318       5.10966290       14      -0.00020801       0.00020801      -0.00000000 
Si       3.41640318       2.41960326       1.70322096       14       0.00020801      -0.00020801       0.00000000 
Si       0.71018760       3.92598104      -0.09495023       14       0.00001573       0.00006531       0.00035193 
Si       1.00797782       2.20781561       1.60827073       14       0.00006531      -0.00001573       0.00035193 
Si       1.91002539       5.12581883       3.50139217       14      -0.00006531      -0.00001573      -0.00035193 
Si       2.20781561       1.00797782       5.20461313       14      -0.00001573       0.00006531      -0.00035193 
Si       3.62819082       4.82802861       1.79817120       14       0.00001573      -0.00006531      -0.00035193 
Si       3.92598104       0.71018760       0.09495023       14       0.00006531       0.00001573      -0.00035193 
Si       4.82802861       3.62819082       5.01471267       14      -0.00006531       0.00001573       0.00035193 
Si       5.12581883       1.91002539       3.31149170       14      -0.00001573      -0.00006531       0.00035193 
12
Lattice="5.849074501051873 4.368655320633638e-42 -6.0767918446533365e-25 -5.83212588545543e-42 5.849074501051873 -7.574748121151094e-17 -8.364649872039508e-25 -9.568252616865101e-17 6.939741850131206" Properties=species:S:1:pos:R:3:Z:I:1:forces:R:3 cutoff=-1.0 stress="0.025270113645135796 -3.4291398320058417e-43 1.3016337701602294e-27 -3.4291398320058417e-43 0.025270113645135796 -1.0522552772331073e-18 1.3016337701602294e-27 -1.0522552772331073e-18 0.02529275205229912" Minim_Constant_Volume=T nneightol=1.2 pbc="T T T" energy=-1954.79409168 Minim_Hydrostatic_Strain=F
Si       0.48120361       0.48120361      -0.00000000       14       0.00010721       0.00010721      -0.00000000 
Si      -0.48120361      -0.48120361       3.46987093       14      -0.00010721      -0.00010721       0.00000000 
Si       2.44333363       3.40574087       5.20480639       14      -0.00010721       0.00010721      -0.00000000 
Si       3.40574087       2.44333363       1.73493546       14       0.00010721      -0.00010721       0.00000000 
Si       0.70087974       3.91574887      -0.15031755       14      -0.00005665       0.00026529       0.00076096 
Si       0.99121161       2.22365750       1.58461790       14       0.00026529       0.00005665       0.00076096 
Si       1.93332563       5.14819476       3.62018849       14      -0.00026529       0.00005665      -0.00076096 
Si       2.22365750       0.99121161       5.35512395       14       0.00005665       0.00026529      -0.00076096 
Si       3.62541700       4.85786289       1.88525302       14      -0.00005665      -0.00026529      -0.00076096 
Si       3.91574887       0.70087974       0.15031755       14       0.00026529      -0.00005665      -0.00076096 
Si       4.85786289       3.62541700       5.05448884       14      -0.00026529      -0.00005665       0.00076096 
Si       5.14819476       1.93332563       3.31955337       14       0.00005665      -0.00026529       0.00076096 
12
Lattice="5.857421927590276 -9.417276660482227e-42 -5.878744530980397e-25 -1.1146273646803749e-41 5.857421927590276 9.934080671823776e-18 -7.998617548375197e-25 9.216186230901494e-18 7.076947122278445" Properties=species:S:1:pos:R:3:Z:I:1:forces:R:3 cutoff=-1.0 stress="0.023850027507852777 -2.0576702483084772e-52 -1.2307836644838111e-27 -2.0576702483084772e-52 0.023850027507852777 -1.2471764593963809e-27 -1.2307836644838111e-27 -1.2471764593963809e-27 0.023798332556153656" Minim_Constant_Volume=T nneightol=1.2 pbc="T T T" energy=-1954.66463922 Minim_Hydrostatic_Strain=F
Si       0.45855647       0.45855647      -0.00000000       14      -0.00069525      -0.00069525      -0.00000000 
Si      -0.45855647      -0.45855647       3.53847357       14       0.00069525       0.00069525       0.00000000 
Si       2.47015449       3.38726744       5.30771034       14       0.00069525      -0.00069525      -0.00000000 
Si       3.38726744       2.47015449       1.76923678       14      -0.00069525       0.00069525       0.00000000 
Si       0.68638712       3.89729032      -0.21907513       14      -0.00020379       0.00026088       0.00020634 
Si       0.96857935       2.24232384       1.55016164       14       0.00026088       0.00020379       0.00020634 
Si       1.96013161       5.17103481       3.75754870       14      -0.00026088       0.00020379      -0.00020634 
Si       2.24232384       0.96857935       5.52678548       14       0.00020379       0.00026088      -0.00020634 
Si       3.61509808       4.88884258       1.98831191       14      -0.00020379      -0.00026088      -0.00020634 
Si       3.89729032       0.68638712       0.21907513       14       0.00026088      -0.00020379      -0.00020634 
Si       4.88884258       3.61509808       5.08863521       14      -0.00026088      -0.00020379       0.00020634 
Si       5.17103481       1.96013161       3.31939842       14       0.00020379      -0.00026088       0.00020634 
12
Lattice="5.8827646737378885 -9.458021485675534e-42 -5.312620914257663e-25 -1.1085038737876445e-41 5.8827646737378885 1.0068825712035264e-17 -7.253438497693218e-25 9.256061012083679e-18 7.1729382467579565" Properties=species:S:1:pos:R:3:Z:I:1:forces:R:3 cutoff=-1.0 stress="0.027083716095684225 9.2097926113034e-53 -1.3317726356977533e-27 9.2097926113034e-53 0.027083716095684225 -6.125926769165812e-28 -1.3317726356977533e-27 -6.125926769165812e-28 0.027075340036136635" Minim_Constant_Volume=T nneightol=1.2 pbc="T T T" energy=-1954.5268417 Minim_Hydrostatic_Strain=F
Si       0.44507965       0.44507965      -0.00000000       14      -0.00052645      -0.00052645      -0.00000000 
Si      -0.44507965      -0.44507965       3.58646913       14       0.00052645       0.00052645       0.00000000 
Si       2.49630268       3.38646199       5.37970369       14       0.00052645      -0.00052645      -0.00000000 
Si       3.38646199       2.49630268       1.79323456       14      -0.00052645       0.00052645       0.00000000 
Si       0.67990340       3.89936459      -0.26327091       14       0.00034712       0.00140977      -0.00044742 
Si       0.95798225       2.26147893       1.52996365       14       0.00140977      -0.00034712      -0.00044742 
Si       1.98340008       5.20286127       3.84974004       14      -0.00140977      -0.00034712       0.00044742 
Si       2.26147893       0.95798225       5.64297460       14      -0.00034712       0.00140977       0.00044742 
Si       3.62128574       4.92478243       2.05650547       14       0.00034712      -0.00140977       0.00044742 
Si       3.89936459       0.67990340       0.26327091       14       0.00140977       0.00034712       0.00044742 
Si       4.92478243       3.62128574       5.11643277       14      -0.00140977       0.00034712      -0.00044742 
Si       5.20286127       1.98340008       3.32319821       14      -0.00034712      -0.00140977      -0.00044742 
