2
Lattice="3.1784922853436313 9.115074034129845e-31 -3.137017456702916e-30 9.115074034129845e-31 3.1784922853436313 -2.1447876073205962e-19 -3.137017456702916e-30 -2.1447876073205962e-19 3.1784922853436313" Properties=species:S:1:pos:R:3:Z:I:1:forces:R:3 stress="0.0005659321490803627 1.0411105487558068e-31 2.0822210975116153e-31 1.0411105487558068e-31 0.0005659321490803629 2.731856597490139e-19 2.0822210975116153e-31 2.731856597490139e-19 0.0005659321490803629" energy=-22.3958113233 Minim_Constant_Volume=T Minim_Hydrostatic_Strain=F pbc="T T T"
W       0.00000000       0.00000000       0.00000000       74      -0.00000000       0.00000000      -0.00000000 
W       1.58924614       1.58924614       1.58924614       74      -0.00000000      -0.00000000      -0.00000000 
2
Lattice="3.1517810032761626 9.038473151782517e-31 -3.110654719085793e-30 9.038473151782517e-31 3.1517810032761626 -2.1267633298925458e-19 -3.110654719085793e-30 -2.1267633298925458e-19 3.1517810032761626" Properties=species:S:1:pos:R:3:Z:I:1:forces:R:3 stress="-0.045635961789762335 9.926551028520082e-33 -8.633624826675534e-47 9.926551028520082e-33 -0.04563596178976223 -8.038256209127281e-18 -8.633624826675534e-47 -8.038256209127281e-18 -0.045635961789762244" energy=-22.3776440955 Minim_Constant_Volume=T Minim_Hydrostatic_Strain=F pbc="T T T"
W       0.00000000       0.00000000       0.00000000       74       0.00000000      -0.00000000       0.00000000 
W       1.57589050       1.57589050       1.57589050       74       0.00000000       0.00000000      -0.00000000 
2
Lattice="3.1246091252902026 8.960551402332182e-31 -3.0838373956754446e-30 8.960551402332182e-31 3.1246091252902026 -2.10842825088649e-19 -3.0838373956754446e-30 -2.10842825088649e-19 3.1246091252902026" Properties=species:S:1:pos:R:3:Z:I:1:forces:R:3 stress="-0.09755474904430411 1.765093501294054e-27 -8.163889191794059e-44 1.765093501294054e-27 -0.09755474904430433 -3.1901442819596633e-17 -8.163889191794059e-44 -3.1901442819596633e-17 -0.09755474904430435" energy=-22.3213547339 Minim_Constant_Volume=T Minim_Hydrostatic_Strain=F pbc="T T T"
W       0.00000000       0.00000000       0.00000000       74      -0.00000000      -0.00000000      -0.00000000 
W       1.56230456       1.56230456       1.56230456       74       0.00000000      -0.00000000      -0.00000000 
2
Lattice="3.0969562668686597 8.881250328382769e-31 -3.0565453679438948e-30 8.881250328382769e-31 3.0969562668686597 -2.0897686152085938e-19 -3.0565453679438948e-30 -2.0897686152085938e-19 3.0969562668686597" Properties=species:S:1:pos:R:3:Z:I:1:forces:R:3 stress="-0.16433799259534226 8.422291045467799e-29 8.422291045467798e-29 8.422291045467799e-29 -0.16433799259534237 1.2887747141633309e-17 8.422291045467798e-29 1.2887747141633309e-17 -0.16433799259534237" energy=-22.2168100934 Minim_Constant_Volume=T Minim_Hydrostatic_Strain=F pbc="T T T"
W       0.00000000       0.00000000       0.00000000       74       0.00000000       0.00000000       0.00000000 
W       1.54847813       1.54847813       1.54847813       74       0.00000000       0.00000000       0.00000000 
2
Lattice="3.068800560550164 8.80050721984678e-31 -3.028757053769216e-30 8.80050721984678e-31 3.068800560550164 -2.0707696671017435e-19 -3.028757053769216e-30 -2.0707696671017435e-19 3.068800560550164" Properties=species:S:1:pos:R:3:Z:I:1:forces:R:3 stress="-0.2444618314984324 2.859182031714627e-29 -2.859182031714628e-29 2.859182031714627e-29 -0.2444618314984324 -8.077578967832255e-17 -2.859182031714628e-29 -8.077578967832255e-17 -0.2444618314984324" energy=-22.053889718 Minim_Constant_Volume=T Minim_Hydrostatic_Strain=F pbc="T T T"
W       0.00000000       0.00000000       0.00000000       74       0.00000000       0.00000000       0.00000000 
W       1.53440028       1.53440028       1.53440028       74       0.00000000       0.00000000       0.00000000 
2
Lattice="3.0401185034176534 8.718254676582948e-31 -3.0004492569141707e-30 8.718254676582948e-31 3.0401185034176534 -2.0514155472336752e-19 -3.0004492569141707e-30 -2.0514155472336752e-19 3.0401185034176534" Properties=species:S:1:pos:R:3:Z:I:1:forces:R:3 stress="-0.3438360896172562 -6.992127707761837e-28 -4.66141847184122e-28 -6.992127707761837e-28 -0.34383608961725654 -1.4506485709722538e-17 -4.66141847184122e-28 -1.4506485709722538e-17 -0.34383608961725626" energy=-21.8190775315 Minim_Constant_Volume=T Minim_Hydrostatic_Strain=F pbc="T T T"
W       0.00000000       0.00000000       0.00000000       74      -0.00000000      -0.00000000       0.00000000 
W       1.52005925       1.52005925       1.52005925       74       0.00000000       0.00000000      -0.00000000 
2
Lattice="3.2047620079236214 9.190408640816417e-31 -3.162944396559328e-30 9.190408640816417e-31 3.2047620079236214 -2.1625139286010085e-19 -3.162944396559328e-30 -2.1625139286010085e-19 3.2047620079236214" Properties=species:S:1:pos:R:3:Z:I:1:forces:R:3 stress="0.045311195161495996 3.355811347279077e-27 -5.0337170209186155e-27 3.355811347279077e-27 0.04531119516149592 1.4707832400217627e-17 -5.0337170209186155e-27 1.4707832400217627e-17 0.045311195161495905" energy=-22.3772338421 Minim_Constant_Volume=T Minim_Hydrostatic_Strain=F pbc="T T T"
W       0.00000000       0.00000000       0.00000000       74       0.00000000      -0.00000000       0.00000000 
W       1.60238100       1.60238100       1.60238100       74      -0.00000000       0.00000000      -0.00000000 
2
Lattice="3.2306079789873845 9.264528040387244e-31 -3.188453114257442e-30 9.264528040387244e-31 3.2306079789873845 -2.179954310222301e-19 -3.188453114257442e-30 -2.179954310222301e-19 3.2306079789873845" Properties=species:S:1:pos:R:3:Z:I:1:forces:R:3 stress="0.08272630328762659 -4.920856439716985e-35 -1.9683425758872506e-34 -4.920856439716985e-35 0.0827263032876266 3.708925603767229e-18 -1.9683425758872506e-34 3.708925603767229e-18 0.08272630328762655" energy=-22.3248899544 Minim_Constant_Volume=T Minim_Hydrostatic_Strain=F pbc="T T T"
W       0.00000000       0.00000000       0.00000000       74       0.00000000       0.00000000       0.00000000 
W       1.61530399       1.61530399       1.61530399       74       0.00000000       0.00000000       0.00000000 
2
Lattice="3.2560468844806576 9.337480083715342e-31 -3.2135600780150034e-30 9.337480083715342e-31 3.2560468844806576 -2.1971200115509963e-19 -3.2135600780150034e-30 -2.1971200115509963e-19 3.2560468844806576" Properties=species:S:1:pos:R:3:Z:I:1:forces:R:3 stress="0.11388888007775386 -1.6470501974178126e-33 -7.750824458436498e-34 -1.6470501974178126e-33 0.1138888800777539 -4.6316392365678635e-17 -7.750824458436498e-34 -4.6316392365678635e-17 0.11388888007775387" energy=-22.2457304761 Minim_Constant_Volume=T Minim_Hydrostatic_Strain=F pbc="T T T"
W       0.00000000       0.00000000       0.00000000       74       0.00000000       0.00000000       0.00000000 
W       1.62802344       1.62802344       1.62802344       74       0.00000000       0.00000000       0.00000000 
2
Lattice="3.281094383291696 9.40930967634489e-31 -3.2382807423939255e-30 9.40930967634489e-31 3.281094383291696 -2.2140215989142907e-19 -3.2382807423939255e-30 -2.2140215989142907e-19 3.281094383291696" Properties=species:S:1:pos:R:3:Z:I:1:forces:R:3 stress="0.14164203769844616 2.55250963955148e-47 -6.67882104253266e-34 2.55250963955148e-47 0.14164203769844622 3.869745310278416e-17 -6.67882104253266e-34 3.869745310278416e-17 0.14164203769844622" energy=-22.1429383377 Minim_Constant_Volume=T Minim_Hydrostatic_Strain=F pbc="T T T"
W       0.00000000       0.00000000       0.00000000       74       0.00000000      -0.00000000       0.00000000 
W       1.64054719       1.64054719       1.64054719       74      -0.00000000      -0.00000000       0.00000000 
2
Lattice="3.305765192219282 9.480059022156976e-31 -3.262629632159581e-30 9.480059022156976e-31 3.305765192219282 -2.230669002934886e-19 -3.262629632159581e-30 -2.230669002934886e-19 3.305765192219282" Properties=species:S:1:pos:R:3:Z:I:1:forces:R:3 stress="0.1659685749826802 -9.399293448240763e-35 -6.696996581876552e-34 -9.399293448240763e-35 0.16596857498268042 8.188797144243895e-18 -6.696996581876552e-34 8.188797144243895e-18 0.16596857498268042" energy=-22.0192262208 Minim_Constant_Volume=T Minim_Hydrostatic_Strain=F pbc="T T T"
W       0.00000000       0.00000000       0.00000000       74       0.00000000       0.00000000       0.00000000 
W       1.65288260       1.65288260       1.65288260       74       0.00000000       0.00000000       0.00000000 
2
Lattice="3.330073162191197 9.549767841943982e-31 -3.286620417504735e-30 9.549767841943982e-31 3.330073162191197 -2.247071569961802e-19 -3.286620417504735e-30 -2.247071569961802e-19 3.330073162191197" Properties=species:S:1:pos:R:3:Z:I:1:forces:R:3 stress="0.19004797405834195 -1.5051681803217832e-34 2.176704384860384e-46 -1.5051681803217832e-34 0.19004797405834167 -1.0872234936627686e-17 2.176704384860384e-46 -1.0872234936627686e-17 0.1900479740583418" energy=-21.8766825384 Minim_Constant_Volume=T Minim_Hydrostatic_Strain=F pbc="T T T"
W       0.00000000       0.00000000       0.00000000       74       0.00000000      -0.00000000       0.00000000 
W       1.66503658       1.66503658       1.66503658       74       0.00000000       0.00000000      -0.00000000 
