2
Lattice="2.948294306931839 6.691262086521151e-18 -5.005070083052639e-27 -1.4741471534659187 2.5532977676360082 1.0351778200012703e-26 -7.939656789166047e-27 1.3862668685028078e-26 4.765597620088486" Properties=species:S:1:pos:R:3:Z:I:1:forces:R:3 stress="0.00019027842856771026 1.3552527156068805e-20 8.410764089261971e-30 1.3552527156068805e-20 0.00019027842856770996 2.1448173458918462e-27 8.410764089261971e-30 2.1448173458918462e-27 0.0002972533869217556" energy=-12.1409186221 Minim_Constant_Volume=T Minim_Hydrostatic_Strain=F pbc="T T T"
Ti       0.00000000      -0.00000000      -0.00000000       22       0.00000000       0.00000000      -0.00000000 
Ti       0.00000000       1.70219851       2.38279881       22       0.00000000      -0.00000000       0.00000000 
2
Lattice="2.923843921774398 -8.358415615641534e-18 -2.905888525111279e-27 -1.4619219608871983 2.5321231129573505 2.4183551193510713e-26 -4.550492477230267e-27 4.1649357270217824e-26 4.724493608831627" Properties=species:S:1:pos:R:3:Z:I:1:forces:R:3 stress="-0.016597288437170492 3.469446951953614e-18 6.110133885962363e-28 3.469446951953614e-18 -0.016597288437170475 5.033961013888862e-27 6.110133885962363e-28 5.033961013888862e-27 -0.016597778015321547" energy=-12.1336755115 Minim_Constant_Volume=T Minim_Hydrostatic_Strain=F pbc="T T T"
Ti      -0.00000000       0.00000000      -0.00000000       22       0.00000000      -0.00000000      -0.00000000 
Ti       0.00000000       1.68808208       2.36224680       22      -0.00000000       0.00000000       0.00000000 
2
Lattice="2.899273822600877 -5.2100828448974583e-17 1.6103958819955746e-26 -1.449636911300438 2.5108447828995786 4.2906010333100885e-26 2.616228628480441e-26 9.435076618234934e-26 4.681705720433101" Properties=species:S:1:pos:R:3:Z:I:1:forces:R:3 stress="-0.035148482732772185 6.938893903907228e-18 -1.0965453040287006e-27 6.938893903907228e-18 -0.035148482732772136 -1.753442054363713e-26 -1.0965453040287006e-27 -1.753442054363713e-26 -0.035141229339587826" energy=-12.1106379072 Minim_Constant_Volume=T Minim_Hydrostatic_Strain=F pbc="T T T"
Ti       0.00000000       0.00000000      -0.00000000       22       0.00000000      -0.00000000       0.00000000 
Ti       0.00000000       1.67389652       2.34085286       22       0.00000000      -0.00000000      -0.00000000 
2
Lattice="2.8736153251420364 -5.163973748062918e-17 1.596143920582408e-26 -1.4368076625710176 2.4886238722772838 4.2526293264461517e-26 2.593075073582549e-26 9.351576437070337e-26 4.640272747322954" Properties=species:S:1:pos:R:3:Z:I:1:forces:R:3 stress="-0.05555724733974998 2.0816681711721685e-17 2.734108255041295e-28 2.0816681711721685e-17 -0.05555724733974988 4.2347325199442724e-27 2.734108255041295e-28 4.2347325199442724e-27 -0.0557289250322401" energy=-12.0700888172 Minim_Constant_Volume=T Minim_Hydrostatic_Strain=F pbc="T T T"
Ti       0.00000000       0.00000000      -0.00000000       22       0.00000000      -0.00000000      -0.00000000 
Ti       0.00000000       1.65908258       2.32013637       22      -0.00000000       0.00000000       0.00000000 
2
Lattice="2.8470688754215194 -2.928787956802477e-16 -3.170280331129465e-26 -1.4235344377107593 2.4656339724390293 8.22081582092781e-26 -5.104956300011965e-26 1.2303377559840738e-25 4.599446500369596" Properties=species:S:1:pos:R:3:Z:I:1:forces:R:3 stress="-0.07823476562070678 2.0816681711721685e-17 -1.52871970941937e-26 2.0816681711721685e-17 -0.07823476562070668 -3.187146012753262e-26 -1.52871970941937e-26 -3.187146012753262e-26 -0.0782339802723185" energy=-12.0102304338 Minim_Constant_Volume=T Minim_Hydrostatic_Strain=F pbc="T T T"
Ti       0.00000000      -0.00000000      -0.00000000       22       0.00000000       0.00000000       0.00000000 
Ti       0.00000000       1.64375598       2.29972325       22       0.00000000       0.00000000       0.00000000 
2
Lattice="2.820854741017507 -2.272460364655607e-16 6.7663768889545e-26 -1.410427370508753 2.442931866106935 1.831973959906244e-25 1.0945449438505172e-25 4.041600184590845e-25 4.555180802643891" Properties=species:S:1:pos:R:3:Z:I:1:forces:R:3 stress="-0.10308323919182576 -6.938893903907228e-18 3.675989258846479e-27 -6.938893903907228e-18 -0.1030832391918257 1.1530138180291263e-26 3.675989258846479e-27 1.1530138180291263e-26 -0.10308182717278484" energy=-11.929090734 Minim_Constant_Volume=T Minim_Hydrostatic_Strain=F pbc="T T T"
Ti       0.00000000      -0.00000000      -0.00000000       22       0.00000000      -0.00000000      -0.00000000 
Ti       0.00000000       1.62862124       2.27759040       22      -0.00000000       0.00000000       0.00000000 
2
Lattice="2.97309809474998 -1.0121069315996632e-18 -4.053500116963423e-27 -1.4865490473749894 2.574778477996598 5.536188789547787e-28 -6.403875374867649e-27 -3.537175466208489e-27 4.803573031804731" Properties=species:S:1:pos:R:3:Z:I:1:forces:R:3 stress="0.015638081349314548 -1.734723475976807e-18 -3.402224802232006e-27 -1.734723475976807e-18 0.015638081349314523 -1.56264731986007e-27 -3.402224802232006e-27 -1.56264731986007e-27 0.01563765117486645" energy=-12.1337029326 Minim_Constant_Volume=T Minim_Hydrostatic_Strain=F pbc="T T T"
Ti       0.00000000      -0.00000000      -0.00000000       22       0.00000000      -0.00000000      -0.00000000 
Ti       0.00000000       1.71651899       2.40178652       22      -0.00000000       0.00000000       0.00000000 
2
Lattice="2.9966223004258756 9.85024011792916e-17 -5.1467957369436795e-26 -1.4983111502129371 2.5951510377157736 -2.5284756654686548e-26 -8.30062858340903e-26 -9.59757145951628e-26 4.843778696738037" Properties=species:S:1:pos:R:3:Z:I:1:forces:R:3 stress="0.029664764292391125 -1.0408340855860843e-17 9.008726295251733e-27 -1.0408340855860843e-17 0.029664764292391056 1.8754912952900557e-26 9.008726295251733e-27 1.8754912952900557e-26 0.029665730460808965" energy=-12.11326508 Minim_Constant_Volume=T Minim_Hydrostatic_Strain=F pbc="T T T"
Ti       0.00000000      -0.00000000      -0.00000000       22      -0.00000000       0.00000000      -0.00000000 
Ti       0.00000000       1.73010069       2.42188935       22       0.00000000      -0.00000000      -0.00000000 
2
Lattice="3.0187401151571023 1.9288907079299058e-16 -9.67865890548826e-26 -1.5093700575785505 2.6143056271492133 -7.832087883945141e-26 -1.5613536648277986e-25 -2.3712376156711143e-25 4.886700673950442" Properties=species:S:1:pos:R:3:Z:I:1:forces:R:3 stress="0.04198363579588877 -2.0816681711721685e-17 7.493410418550711e-27 -2.0816681711721685e-17 0.04198363579588872 1.5246986059492754e-26 7.493410418550711e-27 1.5246986059492754e-26 0.04200169619063103" energy=-12.0810306107 Minim_Constant_Volume=T Minim_Hydrostatic_Strain=F pbc="T T T"
Ti       0.00000000      -0.00000000      -0.00000000       22      -0.00000000       0.00000000       0.00000000 
Ti      -0.00000000       1.74287042       2.44335034       22       0.00000000      -0.00000000      -0.00000000 
2
Lattice="3.0393552148194867 2.378814976600521e-16 -1.7643813204758496e-25 -1.5196776074097427 2.6321588271583862 -1.9865979799574057e-25 -2.8466462261023263e-25 -5.358941198703549e-25 4.932735703852431" Properties=species:S:1:pos:R:3:Z:I:1:forces:R:3 stress="0.05278199385046226 -2.7755575615628914e-17 1.917815071190137e-26 -2.7755575615628914e-17 0.052781993850462214 5.452117743640821e-26 1.917815071190137e-26 5.452117743640821e-26 0.052767817011949936" energy=-12.0384067248 Minim_Constant_Volume=T Minim_Hydrostatic_Strain=F pbc="T T T"
Ti       0.00000000      -0.00000000      -0.00000000       22       0.00000000      -0.00000000       0.00000000 
Ti      -0.00000000       1.75477255       2.46636785       22      -0.00000000       0.00000000      -0.00000000 
2
Lattice="3.059316430628337 4.645331424377456e-16 -3.3707794397382426e-25 -1.5296582153141676 2.6494457471392745 -4.952135266482438e-25 -5.445466554963455e-25 -1.2406181959708158e-24 4.979223250100422" Properties=species:S:1:pos:R:3:Z:I:1:forces:R:3 stress="0.062120955021227185 -6.938893903907228e-18 3.5154347114107435e-26 -6.938893903907228e-18 0.06212095502122712 9.575750114532126e-26 3.5154347114107435e-26 9.575750114532126e-26 0.06223004591324898" energy=-11.9867593638 Minim_Constant_Volume=T Minim_Hydrostatic_Strain=F pbc="T T T"
Ti       0.00000000      -0.00000000      -0.00000000       22       0.00000000      -0.00000000      -0.00000000 
Ti      -0.00000000       1.76629716       2.48961163       22       0.00000000      -0.00000000       0.00000000 
2
Lattice="3.076816378750297 7.977748549185778e-16 -7.399516974167498e-25 -1.5384081893751473 2.6646011467778017 -1.1842147612997262e-24 -1.1975357527967935e-24 -2.9079054731795924e-24 5.032111978496044" Properties=species:S:1:pos:R:3:Z:I:1:forces:R:3 stress="0.07014495399866785 -5.551115123125783e-17 8.128107449184772e-26 -5.551115123125783e-17 0.07014495399866774 2.2305432120678054e-25 8.128107449184772e-26 2.2305432120678054e-25 0.07016060657614222" energy=-11.9273405754 Minim_Constant_Volume=T Minim_Hydrostatic_Strain=F pbc="T T T"
Ti       0.00000000      -0.00000000       0.00000000       22      -0.00000000       0.00000000      -0.00000000 
Ti      -0.00000000       1.77640076       2.51605599       22       0.00000000       0.00000000      -0.00000000 
