2
Lattice="3.0525483821086654 -1.2709633730203477e-30 -1.2709633730203477e-30 -1.2709633730203477e-30 3.0525483821086654 0.0 -1.2709633730203477e-30 0.0 3.0525483821086654" Properties=species:S:1:pos:R:3:Z:I:1:forces:R:3 stress="9.079143185557284e-06 -2.453759560326083e-45 6.321237166979115e-30 -2.453759560326083e-45 9.079143185557273e-06 -2.6781782461285777e-21 6.321237166979115e-30 -2.6781782461285777e-21 9.079143185557272e-06" energy=-325.829123803 Minim_Constant_Volume=T Minim_Hydrostatic_Strain=F pbc="T T T"
Si       0.00000000       0.00000000       0.00000000       14      -0.00000000       0.00000000       0.00000000 
Si       1.52627419       1.52627419       1.52627419       14       0.00000000      -0.00000000      -0.00000000 
2
Lattice="3.026895502208633 -1.2602825035682775e-30 -1.2602825035682775e-30 -1.2602825035682775e-30 3.026895502208633 0.0 -1.2602825035682775e-30 0.0 3.026895502208633" Properties=species:S:1:pos:R:3:Z:I:1:forces:R:3 stress="-0.04968336362497225 1.3225033878641202e-28 1.3225033878641195e-28 1.3225033878641202e-28 -0.049683363624972304 -1.2855828206004874e-17 1.3225033878641195e-28 -1.2855828206004874e-17 -0.04968336362497226" energy=-325.812125484 Minim_Constant_Volume=T Minim_Hydrostatic_Strain=F pbc="T T T"
Si       0.00000000       0.00000000       0.00000000       14       0.00000000       0.00000000      -0.00000000 
Si       1.51344775       1.51344775       1.51344775       14      -0.00000000      -0.00000000       0.00000000 
2
Lattice="3.000800276944958 -1.249417458573336e-30 -1.249417458573336e-30 -1.249417458573336e-30 3.000800276944958 0.0 -1.249417458573336e-30 0.0 3.000800276944958" Properties=species:S:1:pos:R:3:Z:I:1:forces:R:3 stress="-0.11931765089619015 -7.475581175509453e-30 5.041408127697224e-46 -7.475581175509453e-30 -0.11931765089619006 1.3495497222445997e-17 5.041408127697224e-46 1.3495497222445997e-17 -0.11931765089619015" energy=-325.753731417 Minim_Constant_Volume=T Minim_Hydrostatic_Strain=F pbc="T T T"
Si       0.00000000       0.00000000       0.00000000       14       0.00000000       0.00000000       0.00000000 
Si       1.50040014       1.50040014       1.50040014       14       0.00000000       0.00000000       0.00000000 
2
Lattice="2.9742431295123235 -1.2383600870091011e-30 -1.2383600870091011e-30 -1.2383600870091011e-30 2.9742431295123235 0.0 -1.2383600870091011e-30 0.0 2.9742431295123235" Properties=species:S:1:pos:R:3:Z:I:1:forces:R:3 stress="-0.21027991095878268 -1.902419193030519e-30 1.90241919303052e-30 -1.902419193030519e-30 -0.21027991095878268 1.51065695105166e-17 1.90241919303052e-30 1.51065695105166e-17 -0.21027991095878273" energy=-325.637746521 Minim_Constant_Volume=T Minim_Hydrostatic_Strain=F pbc="T T T"
Si       0.00000000       0.00000000       0.00000000       14       0.00000000       0.00000000       0.00000000 
Si       1.48712156       1.48712156       1.48712156       14       0.00000000       0.00000000       0.00000000 
2
Lattice="2.947203058921006 -1.2271016448737109e-30 -1.2271016448737109e-30 -1.2271016448737109e-30 2.947203058921006 0.0 -1.2271016448737109e-30 0.0 2.947203058921006" Properties=species:S:1:pos:R:3:Z:I:1:forces:R:3 stress="-0.315618296610715 -1.5499904462966094e-29 -1.5499904462966097e-29 -1.5499904462966094e-29 -0.3156182966107148 4.548100524083548e-17 -1.5499904462966097e-29 4.548100524083548e-17 -0.31561829661071494" energy=-325.451436807 Minim_Constant_Volume=T Minim_Hydrostatic_Strain=F pbc="T T T"
Si       0.00000000       0.00000000       0.00000000       14       0.00000000       0.00000000       0.00000000 
Si       1.47360153       1.47360153       1.47360153       14       0.00000000       0.00000000       0.00000000 
2
Lattice="2.919657493528536 -1.2156327342060996e-30 -1.2156327342060996e-30 -1.2156327342060996e-30 2.919657493528536 0.0 -1.2156327342060996e-30 0.0 2.919657493528536" Properties=species:S:1:pos:R:3:Z:I:1:forces:R:3 stress="-0.45439356794074176 4.851840740957029e-26 -6.469120987942704e-26 4.851840740957029e-26 -0.45439356794074165 7.526842618679088e-17 -6.469120987942704e-26 7.526842618679088e-17 -0.45439356794074176" energy=-325.179723146 Minim_Constant_Volume=T Minim_Hydrostatic_Strain=F pbc="T T T"
Si       0.00000000       0.00000000       0.00000000       14       0.00000000      -0.00000000       0.00000000 
Si       1.45982875       1.45982875       1.45982875       14       0.00000000       0.00000000       0.00000000 
2
Lattice="3.0777771987805687 -1.281467678905414e-30 -1.281467678905414e-30 -1.281467678905414e-30 3.0777771987805687 0.0 -1.281467678905414e-30 0.0 3.0777771987805687" Properties=species:S:1:pos:R:3:Z:I:1:forces:R:3 stress="0.039543260509162174 1.0855713819195275e-47 -1.1103625724133277e-31 1.0855713819195275e-47 0.03954326050916217 -6.1781235130556645e-18 -1.1103625724133277e-31 -6.1781235130556645e-18 0.039543260509162174" energy=-325.814545568 Minim_Constant_Volume=T Minim_Hydrostatic_Strain=F pbc="T T T"
Si       0.00000000       0.00000000       0.00000000       14       0.00000000      -0.00000000       0.00000000 
Si       1.53888860       1.53888860       1.53888860       14      -0.00000000       0.00000000       0.00000000 
2
Lattice="3.102599054576323 -1.291802541982999e-30 -1.291802541982999e-30 -1.291802541982999e-30 3.102599054576323 0.0 -1.291802541982999e-30 0.0 3.102599054576323" Properties=species:S:1:pos:R:3:Z:I:1:forces:R:3 stress="0.07017321303091252 -2.6853386144204655e-27 2.6853386144204655e-27 -2.6853386144204655e-27 0.0701732130309125 -2.772547414110499e-17 2.6853386144204655e-27 -2.772547414110499e-17 0.07017321303091255" energy=-325.775010293 Minim_Constant_Volume=T Minim_Hydrostatic_Strain=F pbc="T T T"
Si       0.00000000       0.00000000       0.00000000       14       0.00000000      -0.00000000      -0.00000000 
Si       1.55129953       1.55129953       1.55129953       14      -0.00000000       0.00000000      -0.00000000 
2
Lattice="3.1270299742812955 -1.3019746343554619e-30 -1.3019746343554619e-30 -1.3019746343554619e-30 3.1270299742812955 0.0 -1.3019746343554619e-30 0.0 3.1270299742812955" Properties=species:S:1:pos:R:3:Z:I:1:forces:R:3 stress="0.09631868182025385 -1.075660155397454e-31 -3.2269804661923623e-31 -1.075660155397454e-31 0.09631868182025384 -2.5495013620304253e-17 -3.2269804661923623e-31 -2.5495013620304253e-17 0.09631868182025388" energy=-325.716127204 Minim_Constant_Volume=T Minim_Hydrostatic_Strain=F pbc="T T T"
Si       0.00000000       0.00000000       0.00000000       14       0.00000000       0.00000000       0.00000000 
Si       1.56351499       1.56351499       1.56351499       14       0.00000000       0.00000000       0.00000000 
2
Lattice="3.15108499631928 -1.3119902174422585e-30 -1.3119902174422585e-30 -1.3119902174422585e-30 3.15108499631928 0.0 -1.3119902174422585e-30 0.0 3.15108499631928" Properties=species:S:1:pos:R:3:Z:I:1:forces:R:3 stress="0.12035529000938873 4.237199631530053e-31 8.474399263060102e-31 4.237199631530053e-31 0.12035529000938876 1.91813679560442e-17 8.474399263060102e-31 1.91813679560442e-17 0.12035529000938873" energy=-325.638710201 Minim_Constant_Volume=T Minim_Hydrostatic_Strain=F pbc="T T T"
Si       0.00000000       0.00000000       0.00000000       14       0.00000000       0.00000000       0.00000000 
Si       1.57554250       1.57554250       1.57554250       14      -0.00000000       0.00000000       0.00000000 
2
Lattice="3.1747782543537486 -1.3218551759555541e-30 -1.3218551759555541e-30 -1.3218551759555541e-30 3.1747782543537486 0.0 -1.3218551759555541e-30 0.0 3.1747782543537486" Properties=species:S:1:pos:R:3:Z:I:1:forces:R:3 stress="0.13714281979829 4.174191483399274e-31 8.348382966798544e-31 4.174191483399274e-31 0.13714281979829002 3.6622214322261616e-17 8.348382966798544e-31 3.6622214322261616e-17 0.13714281979829002" energy=-325.546818468 Minim_Constant_Volume=T Minim_Hydrostatic_Strain=F pbc="T T T"
Si       0.00000000       0.00000000       0.00000000       14       0.00000000       0.00000000       0.00000000 
Si       1.58738913       1.58738913       1.58738913       14       0.00000000       0.00000000       0.00000000 
2
Lattice="3.1981230504862626 -1.3315750483772178e-30 -1.3315750483772178e-30 -1.3315750483772178e-30 3.1981230504862626 0.0 -1.3315750483772178e-30 0.0 3.1981230504862626" Properties=species:S:1:pos:R:3:Z:I:1:forces:R:3 stress="0.14928818260099475 -1.2636594041730749e-27 2.637783991420673e-43 -1.2636594041730749e-27 0.14928818260099477 4.719528212626023e-18 2.637783991420673e-43 4.719528212626023e-18 0.14928818260099477" energy=-325.444739473 Minim_Constant_Volume=T Minim_Hydrostatic_Strain=F pbc="T T T"
Si       0.00000000       0.00000000       0.00000000       14      -0.00000000       0.00000000       0.00000000 
Si       1.59906153       1.59906153       1.59906153       14      -0.00000000       0.00000000       0.00000000 
