2
Lattice="2.9711245185957664 -4.21507356174034e-18 6.730071549261055e-35 -1.4855622592978823 2.573069310910745 -1.4471870364888084e-34 1.0439649140779024e-34 -2.010305273197239e-34 4.904282960405485" Properties=species:S:1:pos:R:3:Z:I:1:forces:R:3 stress="2.3895336584680213e-06 -1.9058241313221758e-21 4.38698316185863e-36 -1.9058241313221758e-21 2.3895336584680197e-06 -4.877290008502506e-38 4.38698316185863e-36 -4.877290008502506e-38 4.8321993237831303e-05" energy=-11.8522248645 Minim_Constant_Volume=T Minim_Hydrostatic_Strain=F pbc="T T T"
Ti      -0.00000000       0.00000000       0.00000000       22      -0.00000000       0.00000000      -0.00000000 
Ti       0.00000000       1.71537954       2.45214148       22       0.00000000      -0.00000000       0.00000000 
2
Lattice="2.9556266840348147 -8.585122603576488e-17 1.565768203557711e-35 -1.4778133420174064 2.5596477924773122 -2.190111595769665e-34 2.0249228967787757e-35 -3.9392831547297625e-34 4.831802691575462" Properties=species:S:1:pos:R:3:Z:I:1:forces:R:3 stress="-0.017232826728807216 6.938893903907228e-18 8.371491028609803e-37 6.938893903907228e-18 -0.017232826728807212 9.500242535953868e-36 8.371491028609803e-37 9.500242535953868e-36 -0.01722389638992296" energy=-11.8443804671 Minim_Constant_Volume=T Minim_Hydrostatic_Strain=F pbc="T T T"
Ti      -0.00000000       0.00000000       0.00000000       22      -0.00000000       0.00000000      -0.00000000 
Ti       0.00000000       1.70643186       2.41590135       22       0.00000000      -0.00000000       0.00000000 
2
Lattice="2.936954225821384 -8.530885258942145e-17 2.1133655443148314e-33 -1.468477112910691 2.543476969313378 -6.874335334746002e-33 3.4497523157762586e-33 -1.0979937227517803e-32 4.768035645440595" Properties=species:S:1:pos:R:3:Z:I:1:forces:R:3 stress="-0.03679545153378269 1.3877787807814457e-17 2.8256154874875373e-34 1.3877787807814457e-17 -0.03679545153378266 1.3405940855229497e-33 2.8256154874875373e-34 1.3405940855229497e-33 -0.03677001545971205" energy=-11.8190630384 Minim_Constant_Volume=T Minim_Hydrostatic_Strain=F pbc="T T T"
Ti       0.00000000      -0.00000000       0.00000000       22      -0.00000000       0.00000000      -0.00000000 
Ti       0.00000000       1.69565131       2.38401782       22       0.00000000      -0.00000000       0.00000000 
2
Lattice="2.918018980257371 -2.3796832772274593e-16 -4.868624847994497e-33 -1.4590094901286847 2.5270785656280466 -2.960359118525692e-32 -7.86069281542034e-33 -6.021072914379628e-32 4.703001297610954" Properties=species:S:1:pos:R:3:Z:I:1:forces:R:3 stress="-0.05693519256521689 -4.34103206696112e-65 7.606426059655008e-34 -4.34103206696112e-65 -0.05693519256521681 2.676919877125117e-33 7.606426059655008e-34 2.676919877125117e-33 -0.05692082637094805" energy=-11.7752044073 Minim_Constant_Volume=T Minim_Hydrostatic_Strain=F pbc="T T T"
Ti       0.00000000      -0.00000000      -0.00000000       22      -0.00000000       0.00000000      -0.00000000 
Ti       0.00000000       1.68471904       2.35150065       22       0.00000000      -0.00000000       0.00000000 
2
Lattice="2.894809578846492 -5.881174597306207e-16 -1.6070848869608565e-32 -1.4474047894232456 2.5069786343995943 -4.201419808058987e-32 -2.594196514320819e-32 -9.392908509590882e-32 4.649626122291067" Properties=species:S:1:pos:R:3:Z:I:1:forces:R:3 stress="-0.07622971818021408 -3.469446951953614e-17 -3.6159546739824046e-34 -3.469446951953614e-17 -0.07622971818021404 -1.6559230672754787e-33 -3.6159546739824046e-34 -1.6559230672754787e-33 -0.07615831732034702" energy=-11.7125812884 Minim_Constant_Volume=T Minim_Hydrostatic_Strain=F pbc="T T T"
Ti      -0.00000000       0.00000000      -0.00000000       22       0.00000000       0.00000000       0.00000000 
Ti       0.00000000       1.67131909       2.32481306       22       0.00000000       0.00000000       0.00000000 
2
Lattice="2.86923217141636 -6.353060921547047e-16 -1.2460932494639277e-32 -1.4346160857081796 2.4848279498021553 -2.2617033374145921e-32 -2.0182048586308892e-32 -5.473819341937461e-32 4.601437748897454" Properties=species:S:1:pos:R:3:Z:I:1:forces:R:3 stress="-0.09585215616285771 -6.938893903907228e-18 -1.4081022783027349e-33 -6.938893903907228e-18 -0.09585215616285765 -5.878944619888408e-33 -1.4081022783027349e-33 -5.878944619888408e-33 -0.09585305587603253" energy=-11.6320730423 Minim_Constant_Volume=T Minim_Hydrostatic_Strain=F pbc="T T T"
Ti      -0.00000000      -0.00000000      -0.00000000       22      -0.00000000       0.00000000       0.00000000 
Ti       0.00000000       1.65655197       2.30071887       22       0.00000000      -0.00000000      -0.00000000 
2
Lattice="2.9904789701959977 1.1149259971187145e-16 1.3593802708676111e-34 -1.495239485097998 2.5898307576728614 5.9298074413634086e-36 2.1706554247622826e-34 1.5269912244030254e-34 4.961987464653917" Properties=species:S:1:pos:R:3:Z:I:1:forces:R:3 stress="0.015798313073658556 -8.673617379884035e-18 -3.2250510239843035e-36 -8.673617379884035e-18 0.015798313073658542 -8.683041449318207e-36 -3.2250510239843035e-36 -8.683041449318207e-36 0.015735153177311167" energy=-11.8447454429 Minim_Constant_Volume=T Minim_Hydrostatic_Strain=F pbc="T T T"
Ti      -0.00000000       0.00000000      -0.00000000       22      -0.00000000       0.00000000       0.00000000 
Ti       0.00000000       1.72655384       2.48099373       22       0.00000000      -0.00000000      -0.00000000 
2
Lattice="3.014605855403814 1.123921108542598e-16 1.3703476149204748e-34 -1.507302927701906 2.610725253177021 5.977648534669225e-36 2.188168055608682e-34 1.5393108368636675e-34 5.00202028319418" Properties=species:S:1:pos:R:3:Z:I:1:forces:R:3 stress="0.030746693166732498 3.469446951953614e-18 2.269125118288132e-36 3.469446951953614e-18 0.0307466931667325 5.197481202476244e-35 2.269125118288132e-36 5.197481202476244e-35 0.03077024472706171" energy=-11.8229286852 Minim_Constant_Volume=T Minim_Hydrostatic_Strain=F pbc="T T T"
Ti      -0.00000000       0.00000000      -0.00000000       22      -0.00000000      -0.00000000      -0.00000000 
Ti       0.00000000       1.74048350       2.50101014       22       0.00000000       0.00000000       0.00000000 
2
Lattice="3.040512504801429 4.082476231334395e-16 3.661514667567002e-34 -1.5202562524007135 2.6331610696822927 -1.1018078995444513e-32 5.9939854211483345e-34 -2.074772303184305e-32 5.034211281252069" Properties=species:S:1:pos:R:3:Z:I:1:forces:R:3 stress="0.04437553692491405 -3.8163916471489756e-17 -6.468054720490043e-34 -3.8163916471489756e-17 0.044375536924914076 -1.4709470332343939e-33 -6.468054720490043e-34 -1.4709470332343939e-33 0.044388107750897327" energy=-11.7875613115 Minim_Constant_Volume=T Minim_Hydrostatic_Strain=F pbc="T T T"
Ti      -0.00000000       0.00000000      -0.00000000       22       0.00000000      -0.00000000       0.00000000 
Ti       0.00000000       1.75544071       2.51710564       22      -0.00000000       0.00000000      -0.00000000 
2
Lattice="3.06653223294414 1.213072987994213e-15 1.2182245844779404e-32 -1.5332661164720682 2.655694815253445 8.213713842059156e-33 2.016495478983643e-32 2.7261893663408066e-32 5.064235387942404" Properties=species:S:1:pos:R:3:Z:I:1:forces:R:3 stress="0.055765054990509696 -7.632783294297951e-17 -1.8487104882430507e-33 -7.632783294297951e-17 0.05576505499050966 -4.7328269645109975e-33 -1.8487104882430507e-33 -4.7328269645109975e-33 0.05582692648161109" energy=-11.7404350933 Minim_Constant_Volume=T Minim_Hydrostatic_Strain=F pbc="T T T"
Ti       0.00000000      -0.00000000      -0.00000000       22       0.00000000      -0.00000000      -0.00000000 
Ti       0.00000000       1.77046321       2.53211769       22      -0.00000000       0.00000000       0.00000000 
2
Lattice="3.0859642182027684 2.3292511869208735e-15 9.385612974915526e-32 -1.5429821091013816 2.6725234081333817 1.5198986901375379e-31 1.5497446926954073e-31 3.7921001302437327e-31 5.114299784250303" Properties=species:S:1:pos:R:3:Z:I:1:forces:R:3 stress="0.06450445781256299 -1.3877787807814457e-16 -9.638881743187493e-33 -1.3877787807814457e-16 0.06450445781256298 -2.670431749236381e-32 -9.638881743187493e-33 -2.670431749236381e-32 0.06450686278218765" energy=-11.6838207987 Minim_Constant_Volume=T Minim_Hydrostatic_Strain=F pbc="T T T"
Ti      -0.00000000      -0.00000000       0.00000000       22      -0.00000000       0.00000000       0.00000000 
Ti       0.00000000       1.78168227       2.55714989       22       0.00000000      -0.00000000      -0.00000000 
2
Lattice="3.114373473989019 5.373744384694015e-15 4.00352087435659e-31 -1.5571867369945043 2.697126545346885 7.194502095566093e-31 6.637820520184499e-31 1.7605011969237984e-30 5.132976511053321" Properties=species:S:1:pos:R:3:Z:I:1:forces:R:3 stress="0.07185795235970371 -2.636779683484747e-16 -4.0161602478789736e-32 -2.636779683484747e-16 0.07185795235970362 -1.1159637398688895e-31 -4.0161602478789736e-32 -1.1159637398688895e-31 0.07172789326196509" energy=-11.6197857029 Minim_Constant_Volume=T Minim_Hydrostatic_Strain=F pbc="T T T"
Ti       0.00000000      -0.00000000       0.00000000       22       0.00000000       0.00000000      -0.00000000 
Ti       0.00000000       1.79808436       2.56648826       22      -0.00000000      -0.00000000       0.00000000 
