2
Lattice="3.507826104494558 3.1697536827753544e-35 1.8433374078820763e-34 3.1697536827753576e-35 3.507826104494557 -9.742588140242368e-17 1.8433374078820763e-34 -9.742588140242368e-17 3.507826104494557" Properties=species:S:1:pos:R:3:Z:I:1:forces:R:3 stress="-0.000891279551749209 3.401658527989493e-33 -5.342482105308653e-33 3.401658527989493e-33 -0.0008912795517492083 -7.049524303342935e-19 -5.342482105308653e-33 -7.049524303342935e-19 -0.0008912795517492091" energy=-12.4496280574 Minim_Constant_Volume=T Minim_Hydrostatic_Strain=F pbc="T T T"
Ti      -0.00000000      -0.00000000       0.00000000       22       0.00000000      -0.00000000      -0.00000000 
Ti       1.75391305       1.75391305       1.75391305       22       0.00000000       0.00000000      -0.00000000 
2
Lattice="3.478347180492497 3.143115837814892e-35 1.8278464451779994e-34 3.143115837814895e-35 3.478347180492496 -9.660713780791767e-17 1.8278464451779994e-34 -9.660713780791767e-17 3.478347180492496" Properties=species:S:1:pos:R:3:Z:I:1:forces:R:3 stress="-0.08936595161574677 -2.1733682769445493e-32 1.0866841384722744e-32 -2.1733682769445493e-32 -0.08936595161574674 -3.7908043116542305e-17 1.0866841384722744e-32 -3.7908043116542305e-17 -0.08936595161574674" energy=-12.3988590659 Minim_Constant_Volume=T Minim_Hydrostatic_Strain=F pbc="T T T"
Ti      -0.00000000      -0.00000000       0.00000000       22      -0.00000000      -0.00000000       0.00000000 
Ti       1.73917359       1.73917359       1.73917359       22      -0.00000000      -0.00000000      -0.00000000 
2
Lattice="3.4483599367458955 3.1160186632484895e-35 1.8120883641013568e-34 3.1160186632484927e-35 3.4483599367458946 -9.577427621050307e-17 1.8120883641013568e-34 -9.577427621050307e-17 3.4483599367458946" Properties=species:S:1:pos:R:3:Z:I:1:forces:R:3 stress="-0.14850278393951563 1.5116528969129455e-34 4.31900827689413e-35 1.5116528969129455e-34 -0.1485027839395156 2.613088624199425e-17 4.31900827689413e-35 2.613088624199425e-17 -0.14850278393951552" energy=-12.2671678708 Minim_Constant_Volume=T Minim_Hydrostatic_Strain=F pbc="T T T"
Ti      -0.00000000      -0.00000000       0.00000000       22       0.00000000       0.00000000       0.00000000 
Ti       1.72417997       1.72417997       1.72417997       22       0.00000000       0.00000000       0.00000000 
2
Lattice="3.4178418766322167 3.08844183060204e-35 1.7960513428386842e-34 3.0884418306020434e-35 3.417841876632216 -9.492667179206919e-17 1.7960513428386842e-34 -9.492667179206919e-17 3.417841876632216" Properties=species:S:1:pos:R:3:Z:I:1:forces:R:3 stress="-0.16339284460553224 2.2004391663906658e-32 2.2509987076763645e-32 2.2004391663906658e-32 -0.16339284460553238 -1.4885483736506235e-17 2.2509987076763645e-32 -1.4885483736506235e-17 -0.1633928446055324" energy=-12.0943757405 Minim_Constant_Volume=T Minim_Hydrostatic_Strain=F pbc="T T T"
Ti      -0.00000000      -0.00000000       0.00000000       22       0.00000000       0.00000000       0.00000000 
Ti       1.70892094       1.70892094       1.70892094       22       0.00000000       0.00000000       0.00000000 
2
Lattice="3.386768866932014 3.0603635325342055e-35 1.7797226995566024e-34 3.060363532534208e-35 3.3867688669320133 -9.40636542798871e-17 1.7797226995566024e-34 -9.40636542798871e-17 3.3867688669320133" Properties=species:S:1:pos:R:3:Z:I:1:forces:R:3 stress="-0.1262918364864116 -2.6865155000630414e-34 -4.477525833438403e-34 -2.6865155000630414e-34 -0.1262918364864115 5.555340802577897e-17 -4.477525833438403e-34 5.555340802577897e-17 -0.1262918364864115" energy=-11.9334119246 Minim_Constant_Volume=T Minim_Hydrostatic_Strain=F pbc="T T T"
Ti      -0.00000000      -0.00000000       0.00000000       22      -0.00000000      -0.00000000       0.00000000 
Ti       1.69338443       1.69338443       1.69338443       22       0.00000000       0.00000000       0.00000000 
2
Lattice="3.355114969515318 3.0317603307442973e-35 1.7630888039542248e-34 3.0317603307443e-35 3.3551149695153173 -9.318450327189041e-17 1.7630888039542248e-34 -9.318450327189041e-17 3.3551149695153173" Properties=species:S:1:pos:R:3:Z:I:1:forces:R:3 stress="-0.04340061769810953 -4.5624109877894694e-35 -1.4014929094488752e-51 -4.5624109877894694e-35 -0.04340061769810959 -3.3225267932418996e-19 -1.4014929094488752e-51 -3.3225267932418996e-19 -0.043400617698109586" energy=-11.8384999752 Minim_Constant_Volume=T Minim_Hydrostatic_Strain=F pbc="T T T"
Ti      -0.00000000      -0.00000000       0.00000000       22       0.00000000       0.00000000      -0.00000000 
Ti       1.67755748       1.67755748       1.67755748       22       0.00000000      -0.00000000      -0.00000000 
2
Lattice="3.5368177176089994 3.1959511822241877e-35 1.8585722922169129e-34 3.195951182224191e-35 3.5368177176089985 -9.823109049113349e-17 1.8585722922169129e-34 -9.823109049113349e-17 3.5368177176089985" Properties=species:S:1:pos:R:3:Z:I:1:forces:R:3 stress="0.09889245604793545 -3.0792512494311914e-35 2.161879636686214e-51 -3.0792512494311914e-35 0.09889245604793555 -1.3690908741541875e-17 2.161879636686214e-51 -1.3690908741541875e-17 0.09889245604793555" energy=-12.3952698547 Minim_Constant_Volume=T Minim_Hydrostatic_Strain=F pbc="T T T"
Ti      -0.00000000      -0.00000000       0.00000000       22      -0.00000000       0.00000000      -0.00000000 
Ti       1.76840886       1.76840886       1.76840886       22       0.00000000      -0.00000000       0.00000000 
2
Lattice="3.5653416729483083 3.221726095173335e-35 1.873561425751878e-34 3.2217260951733384e-35 3.5653416729483074 -9.902331091689943e-17 1.873561425751878e-34 -9.902331091689943e-17 3.5653416729483074" Properties=species:S:1:pos:R:3:Z:I:1:forces:R:3 stress="0.11248229276249082 -4.0402376102561475e-35 -4.040237610256148e-35 -4.0402376102561475e-35 0.11248229276249093 4.466008194510036e-18 -4.040237610256148e-35 4.466008194510036e-18 0.11248229276249086" energy=-12.2808924496 Minim_Constant_Volume=T Minim_Hydrostatic_Strain=F pbc="T T T"
Ti      -0.00000000      -0.00000000       0.00000000       22      -0.00000000       0.00000000       0.00000000 
Ti       1.78267084       1.78267084       1.78267084       22       0.00000000      -0.00000000       0.00000000 
2
Lattice="3.593416385342781 3.2470950616940006e-35 1.888314485347949e-34 3.247095061694004e-35 3.5934163853427803 -9.980305413069399e-17 1.888314485347949e-34 -9.980305413069399e-17 3.5934163853427803" Properties=species:S:1:pos:R:3:Z:I:1:forces:R:3 stress="0.12256871699949222 -2.0383933793378055e-34 -1.1932058805879841e-34 -2.0383933793378055e-34 0.12256871699949232 1.8172924611113186e-17 -1.1932058805879841e-34 1.8172924611113186e-17 0.12256871699949226" energy=-12.1537747918 Minim_Constant_Volume=T Minim_Hydrostatic_Strain=F pbc="T T T"
Ti      -0.00000000      -0.00000000       0.00000000       22       0.00000000       0.00000000       0.00000000 
Ti       1.79670819       1.79670819       1.79670819       22       0.00000000       0.00000000       0.00000000 
2
Lattice="3.621059136148501 3.272073697623588e-35 1.9028405522335504e-34 3.272073697623591e-35 3.6210591361485003 -1.0057080010253226e-16 1.9028405522335504e-34 -1.0057080010253226e-16 3.6210591361485003" Properties=species:S:1:pos:R:3:Z:I:1:forces:R:3 stress="0.12952398967100467 -7.0107232643549476e-37 -3.9168594065991407e-35 -7.0107232643549476e-37 0.12952398967100479 2.8213779631562506e-17 -3.9168594065991407e-35 2.8213779631562506e-17 0.12952398967100476" energy=-12.0174952936 Minim_Constant_Volume=T Minim_Hydrostatic_Strain=F pbc="T T T"
Ti      -0.00000000      -0.00000000       0.00000000       22      -0.00000000      -0.00000000      -0.00000000 
Ti       1.81052957       1.81052957       1.81052957       22       0.00000000       0.00000000      -0.00000000 
2
Lattice="3.648286167019154 3.296676679300106e-35 1.9171481612809682e-34 3.296676679300109e-35 3.6482861670191533 -1.0132699992587743e-16 1.9171481612809682e-34 -1.0132699992587743e-16 3.6482861670191533" Properties=species:S:1:pos:R:3:Z:I:1:forces:R:3 stress="0.13370496362940382 2.411634245268404e-35 -3.858614792429448e-35 2.411634245268404e-35 0.1337049636294039 4.53995991949153e-17 -3.858614792429448e-35 4.53995991949153e-17 0.1337049636294039" energy=-11.8752386225 Minim_Constant_Volume=T Minim_Hydrostatic_Strain=F pbc="T T T"
Ti      -0.00000000      -0.00000000       0.00000000       22       0.00000000       0.00000000       0.00000000 
Ti       1.82414308       1.82414308       1.82414308       22      -0.00000000      -0.00000000       0.00000000 
2
Lattice="3.6751127640217436 3.3209178195710944e-35 1.931245345208555e-34 3.3209178195710976e-35 3.6751127640217427 -1.0207207815385917e-16 1.931245345208555e-34 -1.0207207815385917e-16 3.6751127640217427" Properties=species:S:1:pos:R:3:Z:I:1:forces:R:3 stress="0.1354492923300381 -1.188277575097305e-35 -7.78191429514075e-51 -1.188277575097305e-35 0.13544929233003808 5.670365833589333e-17 -7.78191429514075e-51 5.670365833589333e-17 0.13544929233003805" energy=-11.7298144116 Minim_Constant_Volume=T Minim_Hydrostatic_Strain=F pbc="T T T"
Ti      -0.00000000      -0.00000000       0.00000000       22       0.00000000       0.00000000       0.00000000 
Ti       1.83755638       1.83755638       1.83755638       22       0.00000000      -0.00000000       0.00000000 
