12
Lattice="5.841402834418154 -3.5784391719110894e-42 1.762451728195663e-26 -3.595648681066894e-42 5.841402834418154 1.6051972519435917e-17 2.294815382224276e-26 2.0639330208481373e-17 6.920603982513724" Properties=species:S:1:pos:R:3:Z:I:1:forces:R:3 cutoff=-1.0 stress="-3.336211254403543e-05 -6.250629309211314e-47 6.905941696265538e-31 -6.250629309211314e-47 -3.336211254403543e-05 -1.2433587519197282e-20 6.905941696265538e-31 -1.2433587519197282e-20 0.00012460822383212323" Minim_Constant_Volume=T nneightol=1.2 pbc="T T T" energy=-1955.52415438 Minim_Hydrostatic_Strain=F
Si       0.44503427       0.44503427       0.00000000       14      -0.00088954      -0.00088954      -0.00000000 
Si      -0.44503427      -0.44503427       3.46030200       14       0.00088954       0.00088954       0.00000000 
Si       2.47566715       3.36573569       5.19045299       14       0.00088954      -0.00088954      -0.00000000 
Si       3.36573569       2.47566715       1.73015099       14      -0.00088954       0.00088954       0.00000000 
Si       0.65798099       3.92573959      -0.16822106       14      -0.00062963       0.00095929      -0.00003011 
Si       1.00503817       2.26272042       1.56192994       14       0.00095929       0.00062963      -0.00003011 
Si       1.91566324       5.18342184       3.62852305       14      -0.00095929       0.00062963       0.00003011 
Si       2.26272042       1.00503817       5.35867405       14       0.00062963       0.00095929       0.00003011 
Si       3.57868242       4.83636467       1.89837205       14      -0.00062963      -0.00095929       0.00003011 
Si       3.92573959       0.65798099       0.16822106       14       0.00095929      -0.00062963       0.00003011 
Si       4.83636467       3.57868242       5.02223193       14      -0.00095929      -0.00062963      -0.00003011 
Si       5.18342184       1.91566324       3.29208093       14       0.00062963      -0.00095929      -0.00003011 
12
Lattice="5.790335353603645 -3.6708259247506923e-42 1.7907256675635412e-26 -3.598157090179585e-42 5.790335353603645 -1.3195583753393264e-17 2.3243913276429758e-26 -1.4063127726701656e-17 6.867130045731008" Properties=species:S:1:pos:R:3:Z:I:1:forces:R:3 cutoff=-1.0 stress="-0.017236934226806482 -9.804408792050032e-46 -2.374389681452769e-29 -9.804408792050032e-46 -0.017236934226806482 6.015533449621469e-19 -2.374389681452769e-29 6.015533449621469e-19 -0.017242509732446332" Minim_Constant_Volume=T nneightol=1.2 pbc="T T T" energy=-1955.47321539 Minim_Hydrostatic_Strain=F
Si       0.45200321       0.45200321      -0.00000000       14      -0.00008176      -0.00008176       0.00000000 
Si      -0.45200321      -0.45200321       3.43356503       14       0.00008176       0.00008176      -0.00000000 
Si       2.44316446       3.34717090       5.15034754       14       0.00008176      -0.00008176       0.00000000 
Si       3.34717090       2.44316446       1.71678251       14      -0.00008176       0.00008176      -0.00000000 
Si       0.64257572       3.89868239      -0.17091793       14       0.00017483      -0.00002154       0.00017020 
Si       1.00351470       2.25259195       1.54586458       14      -0.00002154      -0.00017483       0.00017020 
Si       1.89165297       5.14775963       3.60448296       14       0.00002154      -0.00017483      -0.00017020 
Si       2.25259195       1.00351470       5.32126546       14      -0.00017483      -0.00002154      -0.00017020 
Si       3.53774340       4.78682065       1.88770044       14       0.00017483       0.00002154      -0.00017020 
Si       3.89868239       0.64257572       0.17091793       14      -0.00002154       0.00017483      -0.00017020 
Si       4.78682065       3.53774340       4.97942961       14       0.00002154       0.00017483       0.00017020 
Si       5.14775963       1.89165297       3.26264709       14      -0.00017483       0.00002154       0.00017020 
12
Lattice="5.738101233233834 -4.081495602363984e-42 1.8602477639005547e-26 -3.7044572573489217e-42 5.738101233233834 -1.128897538089112e-16 2.4024972367107485e-26 -1.3228590599055846e-16 6.813420425520975" Properties=species:S:1:pos:R:3:Z:I:1:forces:R:3 cutoff=-1.0 stress="-0.03461040161902752 4.51759285304552e-45 -5.0074883629418284e-29 4.51759285304552e-45 -0.03461040161902752 5.752955356561017e-18 -5.0074883629418284e-29 5.752955356561017e-18 -0.03462009680741384" Minim_Constant_Volume=T nneightol=1.2 pbc="T T T" energy=-1955.32046145 Minim_Hydrostatic_Strain=F
Si       0.46063866       0.46063866      -0.00000000       14      -0.00005615      -0.00005615       0.00000000 
Si      -0.46063866      -0.46063866       3.40671022       14       0.00005615       0.00005615      -0.00000000 
Si       2.40841195       3.32968929       5.11006532       14       0.00005615      -0.00005615       0.00000000 
Si       3.32968929       2.40841195       1.70335510       14      -0.00005615       0.00005615      -0.00000000 
Si       0.62749607       3.87217920      -0.17281249       14       0.00024651      -0.00006382       0.00021179 
Si       1.00312857       2.24155455       1.53054261       14      -0.00006382      -0.00024651       0.00021179 
Si       1.86592204       5.11060517       3.57952271       14       0.00006382      -0.00024651      -0.00021179 
Si       2.24155455       1.00312857       5.28287781       14      -0.00024651      -0.00006382      -0.00021179 
Si       3.49654669       4.73497266       1.87616759       14       0.00024651       0.00006382      -0.00021179 
Si       3.87217920       0.62749607       0.17281249       14      -0.00006382       0.00024651      -0.00021179 
Si       4.73497266       3.49654669       4.93725283       14       0.00006382       0.00024651       0.00021179 
Si       5.11060517       1.86592204       3.23389772       14      -0.00024651       0.00006382       0.00021179 
12
Lattice="5.682259635370557 -3.227953997034103e-42 8.860381517549176e-27 -2.62796650409397e-42 5.682259635370557 -1.4293745098289946e-16 1.2379977504149803e-26 -1.6770417433514582e-16 6.7651312799640575" Properties=species:S:1:pos:R:3:Z:I:1:forces:R:3 cutoff=-1.0 stress="-0.05341559828589097 -1.7275206059837662e-45 -4.082508549931517e-29 -1.7275206059837662e-45 -0.053415598285890986 -1.601973912285069e-17 -4.082508549931517e-29 -1.601973912285069e-17 -0.05342292489244119" Minim_Constant_Volume=T nneightol=1.2 pbc="T T T" energy=-1955.06126257 Minim_Hydrostatic_Strain=F
Si       0.46775015       0.46775015      -0.00000000       14      -0.00004417      -0.00004417       0.00000000 
Si      -0.46775015      -0.46775015       3.38256564       14       0.00004417       0.00004417      -0.00000000 
Si       2.37337967       3.30887997       5.07384846       14       0.00004417      -0.00004417       0.00000000 
Si       3.30887997       2.37337967       1.69128282       14      -0.00004417       0.00004417      -0.00000000 
Si       0.61312571       3.84206792      -0.17613092       14       0.00005889      -0.00002876       0.00015923 
Si       1.00093810       2.22800411       1.51515190       14      -0.00002876      -0.00005889       0.00015923 
Si       1.84019171       5.06913393       3.55869657       14       0.00002876      -0.00005889      -0.00015923 
Si       2.22800411       1.00093810       5.24997938       14      -0.00005889      -0.00002876      -0.00015923 
Si       3.45425553       4.68132153       1.86741374       14       0.00005889       0.00002876      -0.00015923 
Si       3.84206792       0.61312571       0.17613092       14      -0.00002876       0.00005889      -0.00015923 
Si       4.68132153       3.45425553       4.89771754       14       0.00002876       0.00005889       0.00015923 
Si       5.06913393       1.84019171       3.20643471       14      -0.00005889       0.00002876       0.00015923 
12
Lattice="5.625609404950443 -3.612543420344513e-42 2.24388072256852e-26 -4.881229068540675e-42 5.625609404950443 8.054337932134336e-17 2.8435619946927e-26 9.888913958149667e-17 6.715527746600367" Properties=species:S:1:pos:R:3:Z:I:1:forces:R:3 cutoff=-1.0 stress="-0.07358726879476216 5.0192052836041266e-43 -5.607261854926304e-27 5.0192052836041266e-43 -0.07358726879476216 3.9500375945443254e-18 -5.607261854926304e-27 3.9500375945443254e-18 -0.07375426266035615" Minim_Constant_Volume=T nneightol=1.2 pbc="T T T" energy=-1954.686569 Minim_Hydrostatic_Strain=F
Si       0.47104709       0.47104709       0.00000000       14      -0.00102656      -0.00102656      -0.00000000 
Si      -0.47104709      -0.47104709       3.35776388       14       0.00102656       0.00102656       0.00000000 
Si       2.34175761       3.28385180       5.03664581       14       0.00102656      -0.00102656      -0.00000000 
Si       3.28385180       2.34175761       1.67888193       14      -0.00102656       0.00102656       0.00000000 
Si       0.60174875       3.80876179      -0.17793244       14      -0.00009476       0.00011142      -0.00068440 
Si       0.99595708       2.21105595       1.50094949       14       0.00011142       0.00009476      -0.00068440 
Si       1.81684762       5.02386066       3.53569632       14      -0.00011142       0.00009476       0.00068440 
Si       2.21105595       0.99595708       5.21457825       14       0.00009476       0.00011142       0.00068440 
Si       3.41455345       4.62965233       1.85681437       14      -0.00009476      -0.00011142       0.00068440 
Si       3.80876179       0.60174875       0.17793244       14       0.00011142      -0.00009476       0.00068440 
Si       4.62965233       3.41455345       4.85871337       14      -0.00011142      -0.00009476      -0.00068440 
Si       5.02386066       1.81684762       3.17983143       14       0.00009476      -0.00011142      -0.00068440 
12
Lattice="5.569585210059451 -4.152780358257106e-42 -8.476045017492747e-29 -5.877023727222386e-42 5.569585210059451 1.3769199297348591e-16 1.5329426596716292e-27 1.6688990317438763e-16 6.661007363818059" Properties=species:S:1:pos:R:3:Z:I:1:forces:R:3 cutoff=-1.0 stress="-0.09538708358940695 6.0367181783242875e-46 -9.47822752878805e-30 6.0367181783242875e-46 -0.09538708358940692 -1.5498871541660525e-16 -9.47822752878805e-30 -1.5498871541660525e-16 -0.09548352314159747" Minim_Constant_Volume=T nneightol=1.2 pbc="T T T" energy=-1954.18852506 Minim_Hydrostatic_Strain=F
Si       0.46998578       0.46998578       0.00000000       14      -0.00071566      -0.00071566      -0.00000000 
Si      -0.46998578      -0.46998578       3.33050369       14       0.00071566       0.00071566       0.00000000 
Si       2.31480682       3.25477839       4.99575553       14       0.00071566      -0.00071566      -0.00000000 
Si       3.25477839       2.31480682       1.66525184       14      -0.00071566       0.00071566       0.00000000 
Si       0.59737956       3.77250830      -0.17353369       14       0.00023126      -0.00002164      -0.00036912 
Si       0.98771569       2.18741304       1.49171815       14      -0.00002164      -0.00023126      -0.00036912 
Si       1.79707691       4.97220565       3.50403738       14       0.00002164      -0.00023126       0.00036912 
Si       2.18741304       0.98771569       5.16928921       14      -0.00023126      -0.00002164       0.00036912 
Si       3.38217217       4.58186952       1.83878553       14       0.00023126       0.00002164       0.00036912 
Si       3.77250830       0.59737956       0.17353369       14      -0.00002164       0.00023126       0.00036912 
Si       4.58186952       3.38217217       4.82222184       14       0.00002164       0.00023126      -0.00036912 
Si       4.97220565       1.79707691       3.15696999       14      -0.00023126       0.00002164      -0.00036912 
12
Lattice="5.892602295797557 -3.302449221356516e-42 1.7350272712196453e-26 -3.527392980196209e-42 5.892602295797557 8.427458850016321e-17 2.2672726779785896e-26 1.0153173009481862e-16 6.970877057606433" Properties=species:S:1:pos:R:3:Z:I:1:forces:R:3 cutoff=-1.0 stress="0.01761614811730618 -2.0769540864042115e-45 2.289750503052869e-29 -2.0769540864042115e-45 0.01761614811730618 -9.930443297118669e-19 2.289750503052869e-29 -9.930443297118669e-19 0.01761831654927228" Minim_Constant_Volume=T nneightol=1.2 pbc="T T T" energy=-1955.47231949 Minim_Hydrostatic_Strain=F
Si       0.43990278       0.43990278       0.00000000       14      -0.00070608      -0.00070608      -0.00000000 
Si      -0.43990278      -0.43990278       3.48543853       14       0.00070608       0.00070608       0.00000000 
Si       2.50639836       3.38620394       5.22815780       14       0.00070608      -0.00070608      -0.00000000 
Si       3.38620394       2.50639836       1.74271926       14      -0.00070608       0.00070608       0.00000000 
Si       0.67334109       3.95414099      -0.16544550       14      -0.00011843       0.00056933       0.00017870 
Si       1.00783984       2.27296005       1.57727376       14       0.00056933       0.00011843       0.00017870 
Si       1.93846131       5.21926120       3.65088403       14      -0.00056933       0.00011843      -0.00017870 
Si       2.27296005       1.00783984       5.39360330       14       0.00011843       0.00056933      -0.00017870 
Si       3.61964224       4.88476246       1.90816476       14      -0.00011843      -0.00056933      -0.00017870 
Si       3.95414099       0.67334109       0.16544550       14       0.00056933      -0.00011843      -0.00017870 
Si       4.88476246       3.61964224       5.06271230       14      -0.00056933      -0.00011843       0.00017870 
Si       5.21926120       1.93846131       3.31999302       14       0.00011843      -0.00056933       0.00017870 
12
Lattice="5.942913713595107 -3.865026447616495e-42 1.605675359143782e-26 -4.4997008910535085e-42 5.942913713595107 1.9554567261636707e-16 2.119474010699984e-26 2.3338298729251904e-16 7.0205043970322984" Properties=species:S:1:pos:R:3:Z:I:1:forces:R:3 cutoff=-1.0 stress="0.03540415338939277 1.0878234425714196e-43 -1.1968395390950077e-27 1.0878234425714196e-43 0.03540415338939277 -5.94199703648844e-18 -1.1968395390950077e-27 -5.94199703648844e-18 0.035404833603244874" Minim_Constant_Volume=T nneightol=1.2 pbc="T T T" energy=-1955.31524716 Minim_Hydrostatic_Strain=F
Si       0.43771980       0.43771980       0.00000000       14      -0.00029021      -0.00029021      -0.00000000 
Si      -0.43771980      -0.43771980       3.51025220       14       0.00029021       0.00029021       0.00000000 
Si       2.53373705       3.40917667       5.26537830       14       0.00029021      -0.00029021      -0.00000000 
Si       3.40917667       2.53373705       1.75512610       14      -0.00029021       0.00029021       0.00000000 
Si       0.68942994       3.98364113      -0.16319932       14      -0.00006912       0.00034552       0.00003442 
Si       1.01218427       2.28202691       1.59192678       14       0.00034552       0.00006912       0.00003442 
Si       1.95927258       5.25348377       3.67345152       14      -0.00034552       0.00006912      -0.00003442 
Si       2.28202691       1.01218427       5.42857762       14       0.00006912       0.00034552      -0.00003442 
Si       3.66088680       4.93072944       1.91832542       14      -0.00006912      -0.00034552      -0.00003442 
Si       3.98364113       0.68942994       0.16319932       14       0.00034552      -0.00006912      -0.00003442 
Si       4.93072944       3.66088680       5.10217898       14      -0.00034552      -0.00006912       0.00003442 
Si       5.25348377       1.95927258       3.34705287       14       0.00006912      -0.00034552       0.00003442 
12
Lattice="5.993947249140858 -5.2344627035308966e-42 1.6410325158316897e-26 -6.127078460387039e-42 5.993947249140858 2.8211476804793977e-16 2.1682699171404537e-26 3.361230617852179e-16 7.065777160454404" Properties=species:S:1:pos:R:3:Z:I:1:forces:R:3 cutoff=-1.0 stress="0.052833597342693564 -5.759488469828358e-45 6.317345609329174e-29 -5.759488469828358e-45 0.052833597342693564 -3.037349210405318e-18 6.317345609329174e-29 -3.037349210405318e-18 0.05283485925463946" Minim_Constant_Volume=T nneightol=1.2 pbc="T T T" energy=-1955.05469243 Minim_Hydrostatic_Strain=F
Si       0.43738944       0.43738944       0.00000000       14       0.00037983       0.00037983       0.00000000 
Si      -0.43738944      -0.43738944       3.53288859       14      -0.00037983      -0.00037983      -0.00000000 
Si       2.55958418       3.43436307       5.29933287       14      -0.00037983       0.00037983       0.00000000 
Si       3.43436307       2.55958418       1.76644429       14       0.00037983      -0.00037983      -0.00000000 
Si       0.70554522       4.01372886      -0.16141894       14       0.00009161      -0.00034781      -0.00013698 
Si       1.01675523       2.29142840       1.60502535       14      -0.00034781      -0.00009161      -0.00013698 
Si       1.98021839       5.28840203       3.69430753       14       0.00034781      -0.00009161       0.00013698 
Si       2.29142840       1.01675523       5.46075181       14      -0.00009161      -0.00034781       0.00013698 
Si       3.70251885       4.97719202       1.92786323       14       0.00009161       0.00034781       0.00013698 
Si       4.01372886       0.70554522       0.16141894       14      -0.00034781       0.00009161       0.00013698 
Si       4.97719202       3.70251885       5.13791393       14       0.00034781       0.00009161      -0.00013698 
Si       5.28840203       1.98021839       3.37146963       14      -0.00009161       0.00034781      -0.00013698 
12
Lattice="6.045989122553481 -5.282695085766572e-42 2.013645864857418e-26 -5.743010091648923e-42 6.045989122553483 1.9650309116392332e-16 2.6157342113480647e-26 2.362595359079822e-16 7.10615167855869" Properties=species:S:1:pos:R:3:Z:I:1:forces:R:3 cutoff=-1.0 stress="0.06949950976087746 -1.5112645763452194e-43 -5.03896743241209e-28 -1.5112645763452194e-43 0.0694995097608774 1.5440682874097025e-17 -5.03896743241209e-28 1.5440682874097025e-17 0.06953420856294558" Minim_Constant_Volume=T nneightol=1.2 pbc="T T T" energy=-1954.69293639 Minim_Hydrostatic_Strain=F
Si       0.43945728       0.43945728       0.00000000       14      -0.00030670      -0.00030670      -0.00000000 
Si      -0.43945728      -0.43945728       3.55307584       14       0.00030670       0.00030670       0.00000000 
Si       2.58353727       3.46245185       5.32961376       14       0.00030670      -0.00030670      -0.00000000 
Si       3.46245185       2.58353727       1.77653792       14      -0.00030670       0.00030670       0.00000000 
Si       0.72010917       4.04350986      -0.15931084       14      -0.00008281       0.00095904       0.00019861 
Si       1.02051529       2.30288538       1.61722708       14       0.00095904       0.00008281       0.00019861 
Si       2.00247927       5.32587995       3.71238668       14      -0.00095904       0.00008281      -0.00019861 
Si       2.30288538       1.02051529       5.48892460       14       0.00008281       0.00095904      -0.00019861 
Si       3.74310374       5.02547383       1.93584875       14      -0.00008281      -0.00095904      -0.00019861 
Si       4.04350986       0.72010917       0.15931084       14       0.00095904      -0.00008281      -0.00019861 
Si       5.02547383       3.74310374       5.17030292       14      -0.00095904      -0.00008281       0.00019861 
Si       5.32587995       2.00247927       3.39376500       14       0.00008281      -0.00095904       0.00019861 
12
Lattice="6.100071715116885 -6.864657057927088e-42 2.113715960343278e-26 -6.264525758621986e-42 6.100071715116887 -1.3765651626074807e-16 2.744887533039437e-26 -1.5626428374027864e-16 7.139327127216835" Properties=species:S:1:pos:R:3:Z:I:1:forces:R:3 cutoff=-1.0 stress="0.08429229147325618 -1.0671011723291858e-43 1.158536535989037e-27 -1.0671011723291858e-43 0.08429229147325602 -5.039239539598134e-18 1.158536535989037e-27 -5.039239539598134e-18 0.08429024196392852" Minim_Constant_Volume=T nneightol=1.2 pbc="T T T" energy=-1954.23779428 Minim_Hydrostatic_Strain=F
Si       0.44395097       0.44395097      -0.00000000       14       0.00008704       0.00008704      -0.00000000 
Si      -0.44395097      -0.44395097       3.56966357       14      -0.00008704      -0.00008704       0.00000000 
Si       2.60608488       3.49398684       5.35449535       14      -0.00008704       0.00008704      -0.00000000 
Si       3.49398684       2.60608488       1.78483178       14       0.00008704      -0.00008704       0.00000000 
Si       0.73299487       4.07367178      -0.15700202       14      -0.00048765      -0.00028029       0.00020394 
Si       1.02363592       2.31704098       1.62782976       14      -0.00028029       0.00048765       0.00020394 
Si       2.02639994       5.36707685       3.72666559       14       0.00028029       0.00048765      -0.00020394 
Si       2.31704098       1.02363592       5.51149737       14       0.00048765      -0.00028029      -0.00020394 
Si       3.78303073       5.07643580       1.94183380       14      -0.00048765       0.00028029      -0.00020394 
Si       4.07367178       0.73299487       0.15700202       14      -0.00028029      -0.00048765      -0.00020394 
Si       5.07643580       3.78303073       5.19749333       14       0.00028029      -0.00048765       0.00020394 
Si       5.36707685       2.02639994       3.41266154       14       0.00048765       0.00028029       0.00020394 
12
Lattice="6.156381700909255 -7.129213632661808e-42 2.4047055968766334e-26 -6.110978436647596e-42 6.15638170090926 -2.676639719221987e-16 3.1035925670350224e-26 -3.096268153802598e-16 7.165041965427484" Properties=species:S:1:pos:R:3:Z:I:1:forces:R:3 cutoff=-1.0 stress="0.09613358268868363 1.0695138984452598e-44 2.939861246458024e-28 1.0695138984452598e-44 0.09613358268868352 6.501403656188991e-18 2.939861246458024e-28 6.501403656188991e-18 0.09610909791140135" Minim_Constant_Volume=T nneightol=1.2 pbc="T T T" energy=-1953.70376906 Minim_Hydrostatic_Strain=F
Si       0.45104401       0.45104401      -0.00000000       14       0.00035993       0.00035993      -0.00000000 
Si      -0.45104401      -0.45104401       3.58252099       14      -0.00035993      -0.00035993       0.00000000 
Si       2.62714684       3.52923486       5.37378148       14      -0.00035993       0.00035993      -0.00000000 
Si       3.52923486       2.62714684       1.79126049       14       0.00035993      -0.00035993       0.00000000 
Si       0.74394486       4.10426085      -0.15507903       14      -0.00072879      -0.00120189       0.00049488 
Si       1.02606999       2.33424599       1.63618146       14      -0.00120189       0.00072879       0.00049488 
Si       2.05212085       5.41243684       3.73760001       14       0.00120189       0.00072879      -0.00049488 
Si       2.33424599       1.02606999       5.52886050       14       0.00072879      -0.00120189      -0.00049488 
Si       3.82213571       5.13031171       1.94633951       14      -0.00072879       0.00120189      -0.00049488 
Si       4.10426085       0.74394486       0.15507903       14      -0.00120189      -0.00072879      -0.00049488 
Si       5.13031171       3.82213571       5.21870245       14       0.00120189      -0.00072879       0.00049488 
Si       5.41243684       2.05212085       3.42744195       14       0.00072879       0.00120189       0.00049488 
