48
Lattice="3.84666088965 0.0 0.0 0.0 9.42235639317 0.0 0.0 0.0 27.0981161648" Properties=species:S:1:pos:R:3:n_neighb:I:1:travel:I:3:orig_index:I:1:Z:I:1:map_shift:I:3:forces:R:3 energy=-7827.98189546 stress="-0.000173888228634 -4.77882412084e-05 -1.98734064089e-06 -4.77882412084e-05 -0.0102916190905 -1.74648361159e-06 -1.98734064089e-06 -1.74648361159e-06 -3.70759354405e-05" pbc="T T T"
Si      0.48566456      -0.37043036      -0.11372452       17        0        0        0        1       14        0        0        0       0.00306555      -0.00716384      -0.00411547 
Si      0.48652592       0.37862078      11.05909118       17        0        0        0        2       14        0        0        0      -0.00096355       0.00280544      -0.00218750 
Si      0.47858782       2.70266399      10.86353059       17        0        0        0        3       14        0        0        0       0.00837327      -0.00154462       0.00189072 
Si      0.48547435       3.58873768       8.69779157       17        0        0        0        4       14        0        0        0      -0.00048645      -0.00016230       0.00210672 
Si      0.48930688       5.93028210       8.87960931       17        0        1        0        5       14        0        0        0      -0.00381677       0.00217620      -0.00289788 
Si      0.48847244       6.68569799       6.64183472       17        0        1        0        6       14        0        0        0      -0.00144931       0.00057727      -0.00355642 
Si      0.48580166      -0.38516690       6.59466143       17        0        1        0        7       14        0        0        0       0.00101556      -0.00005396       0.00038795 
Si      0.48507720       0.39165840       4.34918835       17        0        1       -1        8       14        0        0        0       0.00066502       0.00286728       0.00283776 
Si      0.48556655       2.74332318       4.30279573       17        0        1       -1        9       14        0        0        0      -0.00192329      -0.00046846      -0.00107001 
Si      0.48396405       3.49856546       2.06472919       17        0        1       -1       10       14        0        0        0       0.00504254      -0.00141910       0.00013602 
Si      0.48862895       5.83997436       2.24621048       17        0        2       -1       11       14        0        0        0      -0.00171587       0.00383237      -0.00111679 
Si      0.49106409       6.72774180       0.08104778       17        0        2       -1       12       14        0        0        0      -0.00241088      -0.00042014      -0.00476654 
Si      2.41004233      -0.43601145       9.99789463       17        1        0        0       13       14        0        0        0      -0.00030197       0.00147346       0.00318077 
Si      2.40910712       0.37102882       7.74421523       17        1        0        0       14       14        0        0        0       0.00126999       0.00235919       0.00231456 
Si      2.40883205       2.73835028       7.63941127       17        1        0        0       15       14        0        0        0       0.00087223      -0.00231989       0.00154654 
Si      2.40894177       3.53381415       5.42099600       17        0        0       -1       16       14        0        0        0       0.00013002      -0.00410388      -0.00011270 
Si      2.41176068       5.89632615       5.52266251       17        1        1       -1       17       14        0        0        0      -0.00138757       0.00234459       0.00229166 
Si      2.41191501       6.69121720       3.30414743       17        1        1       -1       18       14        0        0        0      -0.00197785       0.00213958      -0.00258818 
Si      2.40837145      -0.36374468       3.19952970       17        0        1       -1       19       14        0        0        0       0.00298111      -0.00411254      -0.00062698 
Si      2.40909536       0.44370747       0.94654569       17        1        1       -1       20       14        0        0        0      -0.00319994       0.00467719      -0.00234542 
Si      2.40720053       2.78174271       0.88082116       17        0        1       -1       21       14        0        0        0       0.00037692       0.00374098       0.00311008 
Si      2.40316568       3.38169079      12.24606475       17        0        1       -1       22       14        0        0        0       0.00212444      -0.00493856       0.00420965 
Si      2.41300466       5.71851715      12.24640821       17        1        2       -1       23       14        0        0        0       0.00022509       0.00792374      -0.00274350 
Si      2.41269558       6.64844906      10.06241886       17        1        2       -1       24       14        0        0        0      -0.00413052      -0.00542653       0.00345808 
Si      0.48627056       0.37937926      13.43541018       18        0        0        0        1       14        0        0        0      -0.00318007       0.00669432      -0.00428678 
Si      0.48082241       2.70355254      13.63002768       18        0        0        0        2       14        0        0        0       0.00049767       0.00030164      -0.00461019 
Si      0.48360801       3.59128454      15.79517049       18        0        0        0        3       14        0        0        0       0.00103522      -0.00352663      -0.00071429 
Si      0.48752576       5.93276914      15.61361040       18        0        1        0        4       14        0        0        0      -0.00462469       0.00005586       0.00075201 
Si      0.48596202       6.68790685      17.85172506       20        0        1        0        5       14        0        0        0       0.00168590       0.00073225      -0.00073689 
Si      0.48641521       9.03961839      17.89823212       20        0        1        0        6       14        0        0        0      -0.00085984      -0.00332794       0.00269529 
Si      0.48585077       0.39410381      20.14364818       22        0        1        1        7       14        0        0        0      -0.00119129      -0.00034113       0.00093867 
Si      0.48310364       2.74556794      20.19084544       22        0        1        1        8       14        0        0        0       0.00132958      -0.00074518      -0.00301758 
Si      0.48247897       3.50093541      22.42867250       22        0        1        1        9       14        0        0        0       0.00369012      -0.00220508      -0.00277097 
Si      0.48578649       5.84245698      22.24686903       22        0        2        1       10       14        0        0        0       0.00072685       0.00046249       0.00116089 
Si      0.49256255       6.72836438      24.41259860       20        0        2        1       11       14        0        0        0      -0.00859708       0.00347492       0.00244872 
Si      0.48505155       9.05256235      24.60813713       20        0        2        1       12       14        0        0        0       0.00155483      -0.00397352      -0.00315611 
Si      2.40487645       3.71268492      25.79560969       19        1        0        0       15       14        0        0        0       0.00000656      -0.00782928      -0.00197024 
Si      2.41473021       6.04951798      25.79515318       19        1        1        0       16       14        0        0        0       0.00044426       0.00470841       0.00460659 
Si      2.41094114       6.64935809      14.42965545       17        1        1        0       17       14        1        0        0      -0.00013246      -0.00169888       0.00390356 
Si      2.40951307       8.98752094      14.49570177       17        0        1        0       18       14        0        0        0       0.00257934      -0.00542659      -0.00342363 
Si      2.40977072       0.37266841      16.74859992       19        1        1        0       19       14        0        0        0      -0.00203590       0.00291686      -0.00059129 
Si      2.40695321       2.73990603      16.85306996       19        1        1        0       20       14        0        0        0       0.00139558      -0.00027250      -0.00191563 
Si      2.40647018       3.53485688      19.07168188       21        0        1        0       21       14        0        0        0       0.00181782      -0.00225749       0.00126177 
Si      2.40921885       5.89736035      18.96995978       21        1        2        0       22       14        0        0        0      -0.00000712       0.00465522       0.00018317 
Si      2.40909276       6.69290574      21.18844939       23        0        2        1       23       14        0        0        0      -0.00040772       0.00174522       0.00117516 
Si      2.40919492       9.06022098      21.29320366       23        0        2        1       24       14        0        0        0      -0.00126710      -0.00234011       0.00201666 
Si      2.40825476       0.44481411      23.54685381       21        1        2        1       25       14        0        0        0      -0.00044727       0.00015785       0.00406542 
Si      2.40575897       2.78291125      23.61160707       21        1        2        1       26       14        0        0        0       0.00360905       0.00325580       0.00264257 
