 +-------------------------------------------------+
 |                                                 |
 |      CCC   AA    SSS  TTTTT  EEEEE  PPPP        |
 |     C     A  A  S       T    E      P   P       |
 |     C     AAAA   SS     T    EEE    PPPP        |
 |     C     A  A     S    T    E      P           |
 |      CCC  A  A  SSS     T    EEEEE  P           |
 |                                                 |
 +-------------------------------------------------+
 |                                                 |
 | Welcome to Academic Release CASTEP version 8.0  |
 | Ab Initio Total Energy Program                  |
 |                                                 |
 | Authors:                                        |
 | M. Segall, M. Probert, C. Pickard, P. Hasnip,   |
 | S. Clark, K. Refson, J. R. Yates, M. Payne      |
 |                                                 |
 | Contributors:                                   |
 | P. Lindan, P. Haynes, J. White, V. Milman,      |
 | N. Govind, M. Gibson, P. Tulip, V. Cocula,      |
 | B. Montanari, D. Quigley, M. Glover,            |
 | L. Bernasconi, A. Perlov, M. Plummer,           |
 | E. McNellis, J. Meyer, J. Gale, D. Jochym       |
 | J. Aarons, B. Walker, R. Gillen, D. Jones       |
 | T. Green                                        |
 |                                                 |
 | Copyright (c) 2000 - 2014                       |
 |                                                 |
 |     Distributed under the terms of an           |
 |     Agreement between the United Kingdom        |
 |     Car-Parrinello (UKCP) Consortium,           |
 |     Daresbury Laboratory and Accelrys, Inc.     |
 |                                                 |
 | Please cite                                     |
 |                                                 |
 |     "First principles methods using CASTEP"     |
 |                                                 |
 |         Zeitschrift fuer Kristallographie       |
 |           220(5-6) pp. 567-570 (2005)           |
 |                                                 |
 | S. J. Clark, M. D. Segall, C. J. Pickard,       |
 | P. J. Hasnip, M. J. Probert, K. Refson,         |
 | M. C. Payne                                     |
 |                                                 |
 |       in all publications arising from          |
 |              your use of CASTEP                 |
 |                                                 |
 +-------------------------------------------------+
 
 
 Compiled for linux_x86_64_ifort15-XT on Tue, 24 May 2016 11:06:53 +0100
 from code version 7a66ba17f5c9+  Mon, 08 Dec 2014 20:23:19 +0000
 Compiler: Intel Fortran 15.0.2.164; Optimisation: fast
 MATHLIBS: Intel MKL(11.2.2) (LAPACK version 3.5.0)
 FFT Lib : fftw3 version commercial-fftw-3.3.4-sse2-avx
 Fundamental constants values: CODATA 2010
 
 Run started: Thu, 01 Jun 2017 17:46:18 +0100
 
 Atomic calculation performed for Si: 1s2 2s2 2p6 3s2 3p2
 
 Converged in 54 iterations to an ae energy of -7886.857 eV
 
   ============================================================                
   | Pseudopotential Report - Date of generation  1-06-2017   |                
   ------------------------------------------------------------                
   | Element: Si Ionic charge:  4.00 Level of theory: PBE     |                
   | Atomic Solver: Koelling-Harmon                           |                
   |                                                          |                
   |               Reference Electronic Structure             |                
   |         Orbital         Occupation         Energy        |                
   |            3s              2.000           -0.397        |                
   |            3p              2.000           -0.150        |                
   |                                                          |                
   |                 Pseudopotential Definition               |                
   |        Beta     l      e      Rc     scheme   norm       |                
   |          1      0   -0.397   1.797     qc      0         |                
   |          2      0    0.250   1.797     qc      0         |                
   |          3      1   -0.150   1.797     qc      0         |                
   |          4      1    0.250   1.797     qc      0         |                
   |          5      2    0.000   1.797     qc      0         |                
   |          6      2    0.250   1.797     qc      0         |                
   |         loc     3    0.000   1.797     pn      0         |                
   |                                                          |                
   | Augmentation charge Rinner = 1.255                       |                
   | Partial core correction Rc = 1.255                       |                
   ------------------------------------------------------------                
   | "3|1.8|1|3|6|30:31:32"                                   |                
   ------------------------------------------------------------                
   |      Author: Chris J. Pickard, Cambridge University      |                
   ============================================================                
 
 Pseudo atomic calculation performed for Si 3s2 3p2
 
 Converged in 18 iterations to a total energy of -165.0611 eV
 
 Calculation parallelised over 108 processes.
 Data is distributed by k-point(108-way)

 ************************************ Title ************************************
 

 ***************************** General Parameters ******************************
  
 output verbosity                               : normal  (1)
 write checkpoint data to                       : gb.check
 type of calculation                            : geometry optimization
 stress calculation                             : on
 density difference calculation                 : off
 electron localisation func (ELF) calculation   : off
 Hirshfeld analysis                             : off
 unlimited duration calculation
 timing information                             : on
 memory usage estimate                          : on
 write final potential to formatted file        : off
 write final density to formatted file          : off
 write BibTeX reference list                    : on
 checkpoint writing                             : both castep_bin and check files
  
 output         length unit                     : A
 output           mass unit                     : amu
 output           time unit                     : ps
 output         charge unit                     : e
 output           spin unit                     : hbar/2
 output         energy unit                     : eV
 output          force unit                     : eV/A
 output       velocity unit                     : A/ps
 output       pressure unit                     : GPa
 output     inv_length unit                     : 1/A
 output      frequency unit                     : cm-1
 output force constant unit                     : eV/A**2
 output         volume unit                     : A**3
 output   IR intensity unit                     : (D/A)**2/amu
 output         dipole unit                     : D
 output         efield unit                     : eV/A/e
 output        entropy unit                     : J/mol/K
  
 wavefunctions paging                           : none
 random number generator seed                   : randomised (174618936)
 data distribution                              : optimal for this architecture
 optimization strategy                          : maximize speed(+++)

 *********************** Exchange-Correlation Parameters ***********************
  
 using functional                               : Perdew Wang (1991)
 Divergence correction                          : off
 relativistic treatment                         : Koelling-Harmon
 DFT+D: Semi-empirical dispersion correction    : off

 ************************* Pseudopotential Parameters **************************
  
 pseudopotential representation                 : reciprocal space
 <beta|phi> representation                      : reciprocal space

 **************************** Basis Set Parameters *****************************
  
 plane wave basis set cut-off                   :   250.0000   eV
 size of standard grid                          :     1.7500
 size of   fine   grid                          :     4.0000
 size of   fine   gmax                          :    32.4018   1/A
 finite basis set correction                    : automatic
 number of sample energies                      :          3
           sample  spacing                      :     5.0000   eV

 **************************** Electronic Parameters ****************************
  
 number of  electrons                           :  192.0    
 net charge of system                           :  0.000    
 net spin   of system                           :  0.000    
 number of  up  spins                           :  96.00    
 number of down spins                           :  96.00    
 treating system as non-spin-polarized
 number of bands                                :        196

 ********************* Electronic Minimization Parameters **********************
  
 Method: Treating system as metallic with density mixing treatment of electrons,
         and number of  SD  steps               :          1
         and number of  CG  steps               :          4
  
 total energy / atom convergence tol.           : 0.1000E-06   eV
 eigen-energy convergence tolerance             : 0.2449E-07   eV
 max force / atom convergence tol.              : ignored
 convergence tolerance window                   :          3   cycles
 max. number of SCF cycles                      :        250
 number of fixed-spin iterations                :         10
 smearing scheme                                : Gaussian
 smearing width                                 : 0.5000E-01   eV
 Fermi energy convergence tolerance             : 0.2721E-13   eV
 periodic dipole correction                     : NONE

 ************************** Density Mixing Parameters **************************
  
 density-mixing scheme                          : Pulay
 max. length of mixing history                  :         20
 charge density mixing amplitude                : 0.8000    
 cut-off energy for mixing                      :  250.0       eV

 *********************** Population Analysis Parameters ************************
  
 Population analysis with cutoff                :  3.000       A

 ********************** Geometry Optimization Parameters ***********************
  
 optimization method                            : BFGS
 variable cell method                           : fixed basis quality
 max. number of steps                           :        100
 estimated bulk modulus                         :  500.0       GPa
 estimated <frequency>                          :  1668.       cm-1
 geom line minimiser                            : on
 with line minimiser tolerance                  :     0.4000
 total energy convergence tolerance             : 0.2000E-04   eV/atom
        max ionic |force| tolerance             : 0.1000E-01   eV/A
 max ionic |displacement| tolerance             : 0.1000E-02   A
   max |stress component| tolerance             : 0.1000       GPa
 convergence tolerance window                   :          2   steps
 backup results every                           :          5   steps

 *******************************************************************************
  
 
                           -------------------------------
                                      Unit Cell
                           -------------------------------
        Real Lattice(A)                      Reciprocal Lattice(1/A)
   3.8466610   0.0000000   0.0000000        1.6334128   0.0000000   0.0000000
   0.0000000   9.4223560   0.0000000        0.0000000   0.6668380   0.0000000
   0.0000000   0.0000000  27.0981160        0.0000000   0.0000000   0.2318680
 
                       Lattice parameters(A)       Cell Angles
                    a =    3.846661          alpha =   90.000000
                    b =    9.422356          beta  =   90.000000
                    c =   27.098116          gamma =   90.000000
 
                       Current cell volume =  982.160629       A**3
 
                           -------------------------------
                                     Cell Contents
                           -------------------------------
                         Total number of ions in cell =   48
                      Total number of species in cell =    1
                        Max number of any one species =   48
 
            xxxxxxxxxxxxxxxxxxxxxxxxxxxxxxxxxxxxxxxxxxxxxxxxxxxxxxxxxxxx
            x  Element    Atom        Fractional coordinates of atoms  x
            x            Number           u          v          w      x
            x----------------------------------------------------------x
            x  Si           1         0.126256  -0.039314  -0.004197   x 
            x  Si           2         0.126480   0.040183   0.408113   x 
            x  Si           3         0.124416   0.286835   0.400896   x 
            x  Si           4         0.126207   0.380875   0.320974   x 
            x  Si           5         0.127203   0.629384   0.327684   x 
            x  Si           6         0.126986   0.709557   0.245103   x 
            x  Si           7         0.126292  -0.040878   0.243362   x 
            x  Si           8         0.126103   0.041567   0.160498   x 
            x  Si           9         0.126231   0.291150   0.158786   x 
            x  Si          10         0.125814   0.371305   0.076195   x 
            x  Si          11         0.127027   0.619800   0.082892   x 
            x  Si          12         0.127660   0.714019   0.002991   x 
            x  Si          13         0.626528  -0.046274   0.368952   x 
            x  Si          14         0.626285   0.039378   0.285784   x 
            x  Si          15         0.626214   0.290623   0.281917   x 
            x  Si          16         0.626242   0.375046   0.200051   x 
            x  Si          17         0.626975   0.625780   0.203802   x 
            x  Si          18         0.627015   0.710143   0.121933   x 
            x  Si          19         0.626094  -0.038604   0.118072   x 
            x  Si          20         0.626282   0.047091   0.034930   x 
            x  Si          21         0.625790   0.295228   0.032505   x 
            x  Si          22         0.624741   0.358901   0.451916   x 
            x  Si          23         0.627299   0.606909   0.451928   x 
            x  Si          24         0.627218   0.705604   0.371333   x 
            x  Si          25         0.126414   0.040264   0.495806   x 
            x  Si          26         0.124997   0.286930   0.502988   x 
            x  Si          27         0.125722   0.381145   0.582888   x 
            x  Si          28         0.126740   0.629648   0.576188   x 
            x  Si          29         0.126333   0.709791   0.658781   x 
            x  Si          30         0.126451   0.959380   0.660497   x 
            x  Si          31         0.126305   0.041826   0.743360   x 
            x  Si          32         0.125590   0.291389   0.745101   x 
            x  Si          33         0.125428   0.371556   0.827684   x 
            x  Si          34         0.126288   0.620063   0.820975   x 
            x  Si          35         0.128049   0.714085   0.900897   x 
            x  Si          36         0.126097   0.960754   0.908112   x 
            x  Si          37         0.625185   0.394029   0.951934   x 
            x  Si          38         0.627747   0.642039   0.951917   x 
            x  Si          39         0.626762   0.705700   0.532497   x 
            x  Si          40         0.626391   0.953851   0.534934   x 
            x  Si          41         0.626458   0.039551   0.618072   x 
            x  Si          42         0.625725   0.290788   0.621928   x 
            x  Si          43         0.625600   0.375156   0.703801   x 
            x  Si          44         0.626314   0.625890   0.700047   x 
            x  Si          45         0.626282   0.710322   0.781916   x 
            x  Si          46         0.626308   0.961566   0.785782   x 
            x  Si          47         0.626064   0.047208   0.868948   x 
            x  Si          48         0.625415   0.295352   0.871338   x 
            xxxxxxxxxxxxxxxxxxxxxxxxxxxxxxxxxxxxxxxxxxxxxxxxxxxxxxxxxxxx
 
 
                         No user defined ionic velocities
 
                           -------------------------------
                                   Details of Species
                           -------------------------------
 
                               Mass of species in AMU
                                    Si   28.0855000
 
                          Electric Quadrupole Moment (Barn)
                                    Si    1.0000000 No Isotope Defined
 
                          Files used for pseudopotentials:
                                    Si Pseudopotential generated on-the-fly
 
                           -------------------------------
                              k-Points For BZ Sampling
                           -------------------------------
                       MP grid size for SCF calculation is 18  8  3
                            with an offset of   0.000  0.000  0.000
                       Number of kpoints used =           216
 
                           -------------------------------
                               Symmetry and Constraints
                           -------------------------------
 
                      Maximum deviation from symmetry =  0.00000         ANG
 
         There are no symmetry operations specified or generated for this cell
                      Number of ionic constraints     =           3
                      Point group of crystal =     1: C1, 1, 1
                      Space group of crystal =     4: P2_1, P 2yb
 
 
                         Centre of mass is constrained
             Set iprint > 1 for details of linear ionic constraints
 
                         Number of cell constraints= 0
                         Cell constraints are:  1 2 3 4 5 6
 
                         External pressure/stress (GPa)
                          0.00000   0.00000   0.00000
                                    0.00000   0.00000
                                              0.00000
  
+---------------- MEMORY AND SCRATCH DISK ESTIMATES PER PROCESS --------------+
|                                                     Memory          Disk    |
| Model and support data                             1947.8 MB         0.0 MB |
| Electronic energy minimisation requirements         206.9 MB         0.0 MB |
|                                               ----------------------------- |
| Approx. total storage required per process         2154.6 MB         0.0 MB |
|                                                                             |
| Requirements will fluctuate during execution and may exceed these estimates |
+-----------------------------------------------------------------------------+
Calculating finite basis set correction with  3 cut-off energies.
Calculating total energy with cut-off of  240.000eV.
------------------------------------------------------------------------ <-- SCF
SCF loop      Energy           Fermi           Energy gain       Timer   <-- SCF
                               energy          per atom          (sec)   <-- SCF
------------------------------------------------------------------------ <-- SCF
Initial  -4.03388887E+002  0.00000000E+000                        65.73  <-- SCF
      1  -7.42656690E+003  6.05904132E+000   1.46316209E+002     118.44  <-- SCF
      2  -8.18258161E+003  4.32358892E+000   1.57503065E+001     153.59  <-- SCF
      3  -8.20672237E+003  4.21513206E+000   5.02932538E-001     190.13  <-- SCF
 +-------------------------------------------------+
 |                                                 |
 |      CCC   AA    SSS  TTTTT  EEEEE  PPPP        |
 |     C     A  A  S       T    E      P   P       |
 |     C     AAAA   SS     T    EEE    PPPP        |
 |     C     A  A     S    T    E      P           |
 |      CCC  A  A  SSS     T    EEEEE  P           |
 |                                                 |
 +-------------------------------------------------+
 |                                                 |
 | Welcome to Academic Release CASTEP version 8.0  |
 | Ab Initio Total Energy Program                  |
 |                                                 |
 | Authors:                                        |
 | M. Segall, M. Probert, C. Pickard, P. Hasnip,   |
 | S. Clark, K. Refson, J. R. Yates, M. Payne      |
 |                                                 |
 | Contributors:                                   |
 | P. Lindan, P. Haynes, J. White, V. Milman,      |
 | N. Govind, M. Gibson, P. Tulip, V. Cocula,      |
 | B. Montanari, D. Quigley, M. Glover,            |
 | L. Bernasconi, A. Perlov, M. Plummer,           |
 | E. McNellis, J. Meyer, J. Gale, D. Jochym       |
 | J. Aarons, B. Walker, R. Gillen, D. Jones       |
 | T. Green                                        |
 |                                                 |
 | Copyright (c) 2000 - 2014                       |
 |                                                 |
 |     Distributed under the terms of an           |
 |     Agreement between the United Kingdom        |
 |     Car-Parrinello (UKCP) Consortium,           |
 |     Daresbury Laboratory and Accelrys, Inc.     |
 |                                                 |
 | Please cite                                     |
 |                                                 |
 |     "First principles methods using CASTEP"     |
 |                                                 |
 |         Zeitschrift fuer Kristallographie       |
 |           220(5-6) pp. 567-570 (2005)           |
 |                                                 |
 | S. J. Clark, M. D. Segall, C. J. Pickard,       |
 | P. J. Hasnip, M. J. Probert, K. Refson,         |
 | M. C. Payne                                     |
 |                                                 |
 |       in all publications arising from          |
 |              your use of CASTEP                 |
 |                                                 |
 +-------------------------------------------------+
 
 
 Compiled for linux_x86_64_ifort15-XT on Tue, 24 May 2016 11:06:53 +0100
 from code version 7a66ba17f5c9+  Mon, 08 Dec 2014 20:23:19 +0000
 Compiler: Intel Fortran 15.0.2.164; Optimisation: fast
 MATHLIBS: Intel MKL(11.2.2) (LAPACK version 3.5.0)
 FFT Lib : fftw3 version commercial-fftw-3.3.4-sse2-avx
 Fundamental constants values: CODATA 2010
 
 Run started: Fri, 02 Jun 2017 10:12:32 +0100
 
 Atomic calculation performed for Si: 1s2 2s2 2p6 3s2 3p2
 
 Converged in 54 iterations to an ae energy of -7886.857 eV
 
   ============================================================                
   | Pseudopotential Report - Date of generation  2-06-2017   |                
   ------------------------------------------------------------                
   | Element: Si Ionic charge:  4.00 Level of theory: PBE     |                
   | Atomic Solver: Koelling-Harmon                           |                
   |                                                          |                
   |               Reference Electronic Structure             |                
   |         Orbital         Occupation         Energy        |                
   |            3s              2.000           -0.397        |                
   |            3p              2.000           -0.150        |                
   |                                                          |                
   |                 Pseudopotential Definition               |                
   |        Beta     l      e      Rc     scheme   norm       |                
   |          1      0   -0.397   1.797     qc      0         |                
   |          2      0    0.250   1.797     qc      0         |                
   |          3      1   -0.150   1.797     qc      0         |                
   |          4      1    0.250   1.797     qc      0         |                
   |          5      2    0.000   1.797     qc      0         |                
   |          6      2    0.250   1.797     qc      0         |                
   |         loc     3    0.000   1.797     pn      0         |                
   |                                                          |                
   | Augmentation charge Rinner = 1.255                       |                
   | Partial core correction Rc = 1.255                       |                
   ------------------------------------------------------------                
   | "3|1.8|1|3|6|30:31:32"                                   |                
   ------------------------------------------------------------                
   |      Author: Chris J. Pickard, Cambridge University      |                
   ============================================================                
 
 Pseudo atomic calculation performed for Si 3s2 3p2
 
 Converged in 18 iterations to a total energy of -165.0611 eV
 
 Calculation parallelised over 144 processes.
 Data is distributed by G-vector(4-way) and k-point(36-way)

 ************************************ Title ************************************
 

 ***************************** General Parameters ******************************
  
 output verbosity                               : normal  (1)
 write checkpoint data to                       : gb.check
 type of calculation                            : geometry optimization
 stress calculation                             : on
 density difference calculation                 : off
 electron localisation func (ELF) calculation   : off
 Hirshfeld analysis                             : off
 unlimited duration calculation
 timing information                             : on
 memory usage estimate                          : on
 write final potential to formatted file        : off
 write final density to formatted file          : off
 write BibTeX reference list                    : on
 checkpoint writing                             : both castep_bin and check files
  
 output         length unit                     : A
 output           mass unit                     : amu
 output           time unit                     : ps
 output         charge unit                     : e
 output           spin unit                     : hbar/2
 output         energy unit                     : eV
 output          force unit                     : eV/A
 output       velocity unit                     : A/ps
 output       pressure unit                     : GPa
 output     inv_length unit                     : 1/A
 output      frequency unit                     : cm-1
 output force constant unit                     : eV/A**2
 output         volume unit                     : A**3
 output   IR intensity unit                     : (D/A)**2/amu
 output         dipole unit                     : D
 output         efield unit                     : eV/A/e
 output        entropy unit                     : J/mol/K
  
 wavefunctions paging                           : none
 random number generator seed                   : randomised (101232880)
 data distribution                              : optimal for this architecture
 optimization strategy                          : maximize speed(+++)

 *********************** Exchange-Correlation Parameters ***********************
  
 using functional                               : Perdew Wang (1991)
 Divergence correction                          : off
 relativistic treatment                         : Koelling-Harmon
 DFT+D: Semi-empirical dispersion correction    : off

 ************************* Pseudopotential Parameters **************************
  
 pseudopotential representation                 : reciprocal space
 <beta|phi> representation                      : reciprocal space

 **************************** Basis Set Parameters *****************************
  
 plane wave basis set cut-off                   :   250.0000   eV
 size of standard grid                          :     1.7500
 size of   fine   grid                          :     4.0000
 size of   fine   gmax                          :    32.4018   1/A
 finite basis set correction                    : automatic
 number of sample energies                      :          3
           sample  spacing                      :     5.0000   eV

 **************************** Electronic Parameters ****************************
  
 number of  electrons                           :  192.0    
 net charge of system                           :  0.000    
 net spin   of system                           :  0.000    
 number of  up  spins                           :  96.00    
 number of down spins                           :  96.00    
 treating system as non-spin-polarized
 number of bands                                :        196

 ********************* Electronic Minimization Parameters **********************
  
 Method: Treating system as metallic with density mixing treatment of electrons,
         and number of  SD  steps               :          1
         and number of  CG  steps               :          4
  
 total energy / atom convergence tol.           : 0.1000E-06   eV
 eigen-energy convergence tolerance             : 0.2449E-07   eV
 max force / atom convergence tol.              : ignored
 convergence tolerance window                   :          3   cycles
 max. number of SCF cycles                      :        250
 number of fixed-spin iterations                :         10
 smearing scheme                                : Gaussian
 smearing width                                 : 0.5000E-01   eV
 Fermi energy convergence tolerance             : 0.2721E-13   eV
 periodic dipole correction                     : NONE

 ************************** Density Mixing Parameters **************************
  
 density-mixing scheme                          : Pulay
 max. length of mixing history                  :         20
 charge density mixing amplitude                : 0.8000    
 cut-off energy for mixing                      :  250.0       eV

 *********************** Population Analysis Parameters ************************
  
 Population analysis with cutoff                :  3.000       A

 ********************** Geometry Optimization Parameters ***********************
  
 optimization method                            : BFGS
 variable cell method                           : fixed basis quality
 max. number of steps                           :        100
 estimated bulk modulus                         :  500.0       GPa
 estimated <frequency>                          :  1668.       cm-1
 geom line minimiser                            : on
 with line minimiser tolerance                  :     0.4000
 total energy convergence tolerance             : 0.2000E-04   eV/atom
        max ionic |force| tolerance             : 0.1000E-01   eV/A
 max ionic |displacement| tolerance             : 0.1000E-02   A
   max |stress component| tolerance             : 0.1000       GPa
 convergence tolerance window                   :          2   steps
 backup results every                           :          5   steps

 *******************************************************************************
  
 
                           -------------------------------
                                      Unit Cell
                           -------------------------------
        Real Lattice(A)                      Reciprocal Lattice(1/A)
   3.8466610   0.0000000   0.0000000        1.6334128   0.0000000   0.0000000
   0.0000000   9.4223560   0.0000000        0.0000000   0.6668380   0.0000000
   0.0000000   0.0000000  27.0981160        0.0000000   0.0000000   0.2318680
 
                       Lattice parameters(A)       Cell Angles
                    a =    3.846661          alpha =   90.000000
                    b =    9.422356          beta  =   90.000000
                    c =   27.098116          gamma =   90.000000
 
                       Current cell volume =  982.160629       A**3
 
                           -------------------------------
                                     Cell Contents
                           -------------------------------
                         Total number of ions in cell =   48
                      Total number of species in cell =    1
                        Max number of any one species =   48
 
            xxxxxxxxxxxxxxxxxxxxxxxxxxxxxxxxxxxxxxxxxxxxxxxxxxxxxxxxxxxx
            x  Element    Atom        Fractional coordinates of atoms  x
            x            Number           u          v          w      x
            x----------------------------------------------------------x
            x  Si           1         0.126256  -0.039314  -0.004197   x 
            x  Si           2         0.126480   0.040183   0.408113   x 
            x  Si           3         0.124416   0.286835   0.400896   x 
            x  Si           4         0.126207   0.380875   0.320974   x 
            x  Si           5         0.127203   0.629384   0.327684   x 
            x  Si           6         0.126986   0.709557   0.245103   x 
            x  Si           7         0.126292  -0.040878   0.243362   x 
            x  Si           8         0.126103   0.041567   0.160498   x 
            x  Si           9         0.126231   0.291150   0.158786   x 
            x  Si          10         0.125814   0.371305   0.076195   x 
            x  Si          11         0.127027   0.619800   0.082892   x 
            x  Si          12         0.127660   0.714019   0.002991   x 
            x  Si          13         0.626528  -0.046274   0.368952   x 
            x  Si          14         0.626285   0.039378   0.285784   x 
            x  Si          15         0.626214   0.290623   0.281917   x 
            x  Si          16         0.626242   0.375046   0.200051   x 
            x  Si          17         0.626975   0.625780   0.203802   x 
            x  Si          18         0.627015   0.710143   0.121933   x 
            x  Si          19         0.626094  -0.038604   0.118072   x 
            x  Si          20         0.626282   0.047091   0.034930   x 
            x  Si          21         0.625790   0.295228   0.032505   x 
            x  Si          22         0.624741   0.358901   0.451916   x 
            x  Si          23         0.627299   0.606909   0.451928   x 
            x  Si          24         0.627218   0.705604   0.371333   x 
            x  Si          25         0.126414   0.040264   0.495806   x 
            x  Si          26         0.124997   0.286930   0.502988   x 
            x  Si          27         0.125722   0.381145   0.582888   x 
            x  Si          28         0.126740   0.629648   0.576188   x 
            x  Si          29         0.126333   0.709791   0.658781   x 
            x  Si          30         0.126451   0.959380   0.660497   x 
            x  Si          31         0.126305   0.041826   0.743360   x 
            x  Si          32         0.125590   0.291389   0.745101   x 
            x  Si          33         0.125428   0.371556   0.827684   x 
            x  Si          34         0.126288   0.620063   0.820975   x 
            x  Si          35         0.128049   0.714085   0.900897   x 
            x  Si          36         0.126097   0.960754   0.908112   x 
            x  Si          37         0.625185   0.394029   0.951934   x 
            x  Si          38         0.627747   0.642039   0.951917   x 
            x  Si          39         0.626762   0.705700   0.532497   x 
            x  Si          40         0.626391   0.953851   0.534934   x 
            x  Si          41         0.626458   0.039551   0.618072   x 
            x  Si          42         0.625725   0.290788   0.621928   x 
            x  Si          43         0.625600   0.375156   0.703801   x 
            x  Si          44         0.626314   0.625890   0.700047   x 
            x  Si          45         0.626282   0.710322   0.781916   x 
            x  Si          46         0.626308   0.961566   0.785782   x 
            x  Si          47         0.626064   0.047208   0.868948   x 
            x  Si          48         0.625415   0.295352   0.871338   x 
            xxxxxxxxxxxxxxxxxxxxxxxxxxxxxxxxxxxxxxxxxxxxxxxxxxxxxxxxxxxx
 
 
                         No user defined ionic velocities
 
                           -------------------------------
                                   Details of Species
                           -------------------------------
 
                               Mass of species in AMU
                                    Si   28.0855000
 
                          Electric Quadrupole Moment (Barn)
                                    Si    1.0000000 No Isotope Defined
 
                          Files used for pseudopotentials:
                                    Si Pseudopotential generated on-the-fly
 
                           -------------------------------
                              k-Points For BZ Sampling
                           -------------------------------
                       MP grid size for SCF calculation is  9  4  2
                            with an offset of   0.000  0.000  0.000
                       Number of kpoints used =            36
 
                           -------------------------------
                               Symmetry and Constraints
                           -------------------------------
 
                      Maximum deviation from symmetry =  0.00000         ANG
 
         There are no symmetry operations specified or generated for this cell
                      Number of ionic constraints     =           3
                      Point group of crystal =     1: C1, 1, 1
                      Space group of crystal =     4: P2_1, P 2yb
 
 
                         Centre of mass is constrained
             Set iprint > 1 for details of linear ionic constraints
 
                         Number of cell constraints= 0
                         Cell constraints are:  1 2 3 4 5 6
 
                         External pressure/stress (GPa)
                          0.00000   0.00000   0.00000
                                    0.00000   0.00000
                                              0.00000
  
+---------------- MEMORY AND SCRATCH DISK ESTIMATES PER PROCESS --------------+
|                                                     Memory          Disk    |
| Model and support data                              596.6 MB         0.0 MB |
| Electronic energy minimisation requirements          37.7 MB         0.0 MB |
|                                               ----------------------------- |
| Approx. total storage required per process          634.3 MB         0.0 MB |
|                                                                             |
| Requirements will fluctuate during execution and may exceed these estimates |
+-----------------------------------------------------------------------------+
Calculating finite basis set correction with  3 cut-off energies.
Calculating total energy with cut-off of  240.000eV.
------------------------------------------------------------------------ <-- SCF
SCF loop      Energy           Fermi           Energy gain       Timer   <-- SCF
                               energy          per atom          (sec)   <-- SCF
------------------------------------------------------------------------ <-- SCF
Initial  -4.03023301E+002  0.00000000E+000                        21.87  <-- SCF
      1  -7.42649219E+003  6.05015610E+000   1.46322269E+002      29.06  <-- SCF
      2  -8.18267096E+003  4.30462722E+000   1.57537244E+001      33.71  <-- SCF
      3  -8.20671914E+003  4.20108665E+000   5.01003784E-001      40.42  <-- SCF
      4  -8.20347955E+003  4.30932163E+000  -6.74915507E-002      62.47  <-- SCF
      5  -8.20326900E+003  4.42334317E+000  -4.38653383E-003      84.93  <-- SCF
      6  -8.20328331E+003  4.41835765E+000   2.98111946E-004     107.15  <-- SCF
      7  -8.20328931E+003  4.43323468E+000   1.25134921E-004     129.19  <-- SCF
      8  -8.20328965E+003  4.43470985E+000   7.09795546E-006     151.11  <-- SCF
      9  -8.20328967E+003  4.43487820E+000   4.31047872E-007     172.96  <-- SCF
 +-------------------------------------------------+
 |                                                 |
 |      CCC   AA    SSS  TTTTT  EEEEE  PPPP        |
 |     C     A  A  S       T    E      P   P       |
 |     C     AAAA   SS     T    EEE    PPPP        |
 |     C     A  A     S    T    E      P           |
 |      CCC  A  A  SSS     T    EEEEE  P           |
 |                                                 |
 +-------------------------------------------------+
 |                                                 |
 | Welcome to Academic Release CASTEP version 8.0  |
 | Ab Initio Total Energy Program                  |
 |                                                 |
 | Authors:                                        |
 | M. Segall, M. Probert, C. Pickard, P. Hasnip,   |
 | S. Clark, K. Refson, J. R. Yates, M. Payne      |
 |                                                 |
 | Contributors:                                   |
 | P. Lindan, P. Haynes, J. White, V. Milman,      |
 | N. Govind, M. Gibson, P. Tulip, V. Cocula,      |
 | B. Montanari, D. Quigley, M. Glover,            |
 | L. Bernasconi, A. Perlov, M. Plummer,           |
 | E. McNellis, J. Meyer, J. Gale, D. Jochym       |
 | J. Aarons, B. Walker, R. Gillen, D. Jones       |
 | T. Green                                        |
 |                                                 |
 | Copyright (c) 2000 - 2014                       |
 |                                                 |
 |     Distributed under the terms of an           |
 |     Agreement between the United Kingdom        |
 |     Car-Parrinello (UKCP) Consortium,           |
 |     Daresbury Laboratory and Accelrys, Inc.     |
 |                                                 |
 | Please cite                                     |
 |                                                 |
 |     "First principles methods using CASTEP"     |
 |                                                 |
 |         Zeitschrift fuer Kristallographie       |
 |           220(5-6) pp. 567-570 (2005)           |
 |                                                 |
 | S. J. Clark, M. D. Segall, C. J. Pickard,       |
 | P. J. Hasnip, M. J. Probert, K. Refson,         |
 | M. C. Payne                                     |
 |                                                 |
 |       in all publications arising from          |
 |              your use of CASTEP                 |
 |                                                 |
 +-------------------------------------------------+
 
 
 Compiled for linux_x86_64_ifort15-XT on Tue, 24 May 2016 11:06:53 +0100
 from code version 7a66ba17f5c9+  Mon, 08 Dec 2014 20:23:19 +0000
 Compiler: Intel Fortran 15.0.2.164; Optimisation: fast
 MATHLIBS: Intel MKL(11.2.2) (LAPACK version 3.5.0)
 FFT Lib : fftw3 version commercial-fftw-3.3.4-sse2-avx
 Fundamental constants values: CODATA 2010
 
 Run started: Mon, 05 Jun 2017 16:29:36 +0100
 
 Atomic calculation performed for Si: 1s2 2s2 2p6 3s2 3p2
 
 Converged in 54 iterations to an ae energy of -7886.857 eV
 
   ============================================================                
   | Pseudopotential Report - Date of generation  5-06-2017   |                
   ------------------------------------------------------------                
   | Element: Si Ionic charge:  4.00 Level of theory: PBE     |                
   | Atomic Solver: Koelling-Harmon                           |                
   |                                                          |                
   |               Reference Electronic Structure             |                
   |         Orbital         Occupation         Energy        |                
   |            3s              2.000           -0.397        |                
   |            3p              2.000           -0.150        |                
   |                                                          |                
   |                 Pseudopotential Definition               |                
   |        Beta     l      e      Rc     scheme   norm       |                
   |          1      0   -0.397   1.797     qc      0         |                
   |          2      0    0.250   1.797     qc      0         |                
   |          3      1   -0.150   1.797     qc      0         |                
   |          4      1    0.250   1.797     qc      0         |                
   |          5      2    0.000   1.797     qc      0         |                
   |          6      2    0.250   1.797     qc      0         |                
   |         loc     3    0.000   1.797     pn      0         |                
   |                                                          |                
   | Augmentation charge Rinner = 1.255                       |                
   | Partial core correction Rc = 1.255                       |                
   ------------------------------------------------------------                
   | "3|1.8|1|3|6|30:31:32"                                   |                
   ------------------------------------------------------------                
   |      Author: Chris J. Pickard, Cambridge University      |                
   ============================================================                
 
 Pseudo atomic calculation performed for Si 3s2 3p2
 
 Converged in 18 iterations to a total energy of -165.0611 eV
 
 Calculation parallelised over 144 processes.
 Data is distributed by G-vector(4-way) and k-point(36-way)

 ************************************ Title ************************************
 

 ***************************** General Parameters ******************************
  
 output verbosity                               : normal  (1)
 write checkpoint data to                       : gb.check
 type of calculation                            : geometry optimization
 stress calculation                             : on
 density difference calculation                 : off
 electron localisation func (ELF) calculation   : off
 Hirshfeld analysis                             : off
 unlimited duration calculation
 timing information                             : on
 memory usage estimate                          : on
 write final potential to formatted file        : off
 write final density to formatted file          : off
 write BibTeX reference list                    : on
 checkpoint writing                             : both castep_bin and check files
  
 output         length unit                     : A
 output           mass unit                     : amu
 output           time unit                     : ps
 output         charge unit                     : e
 output           spin unit                     : hbar/2
 output         energy unit                     : eV
 output          force unit                     : eV/A
 output       velocity unit                     : A/ps
 output       pressure unit                     : GPa
 output     inv_length unit                     : 1/A
 output      frequency unit                     : cm-1
 output force constant unit                     : eV/A**2
 output         volume unit                     : A**3
 output   IR intensity unit                     : (D/A)**2/amu
 output         dipole unit                     : D
 output         efield unit                     : eV/A/e
 output        entropy unit                     : J/mol/K
  
 wavefunctions paging                           : none
 random number generator seed                   : randomised (162936859)
 data distribution                              : optimal for this architecture
 optimization strategy                          : maximize speed(+++)

 *********************** Exchange-Correlation Parameters ***********************
  
 using functional                               : Perdew Wang (1991)
 Divergence correction                          : off
 relativistic treatment                         : Koelling-Harmon
 DFT+D: Semi-empirical dispersion correction    : off

 ************************* Pseudopotential Parameters **************************
  
 pseudopotential representation                 : reciprocal space
 <beta|phi> representation                      : reciprocal space

 **************************** Basis Set Parameters *****************************
  
 plane wave basis set cut-off                   :   250.0000   eV
 size of standard grid                          :     1.7500
 size of   fine   grid                          :     4.0000
 size of   fine   gmax                          :    32.4018   1/A
 finite basis set correction                    : automatic
 number of sample energies                      :          3
           sample  spacing                      :     5.0000   eV

 **************************** Electronic Parameters ****************************
  
 number of  electrons                           :  192.0    
 net charge of system                           :  0.000    
 net spin   of system                           :  0.000    
 number of  up  spins                           :  96.00    
 number of down spins                           :  96.00    
 treating system as non-spin-polarized
 number of bands                                :        196

 ********************* Electronic Minimization Parameters **********************
  
 Method: Treating system as metallic with density mixing treatment of electrons,
         and number of  SD  steps               :          1
         and number of  CG  steps               :          4
  
 total energy / atom convergence tol.           : 0.1000E-06   eV
 eigen-energy convergence tolerance             : 0.2449E-07   eV
 max force / atom convergence tol.              : ignored
 convergence tolerance window                   :          3   cycles
 max. number of SCF cycles                      :        250
 number of fixed-spin iterations                :         10
 smearing scheme                                : Gaussian
 smearing width                                 : 0.5000E-01   eV
 Fermi energy convergence tolerance             : 0.2721E-13   eV
 periodic dipole correction                     : NONE

 ************************** Density Mixing Parameters **************************
  
 density-mixing scheme                          : Pulay
 max. length of mixing history                  :         20
 charge density mixing amplitude                : 0.8000    
 cut-off energy for mixing                      :  250.0       eV

 *********************** Population Analysis Parameters ************************
  
 Population analysis with cutoff                :  3.000       A

 ********************** Geometry Optimization Parameters ***********************
  
 optimization method                            : BFGS
 variable cell method                           : fixed basis quality
 max. number of steps                           :        100
 estimated bulk modulus                         :  500.0       GPa
 estimated <frequency>                          :  1668.       cm-1
 geom line minimiser                            : on
 with line minimiser tolerance                  :     0.4000
 total energy convergence tolerance             : 0.2000E-04   eV/atom
        max ionic |force| tolerance             : 0.1000E-01   eV/A
 max ionic |displacement| tolerance             : 0.1000E-02   A
   max |stress component| tolerance             : 0.1000       GPa
 convergence tolerance window                   :          2   steps
 backup results every                           :          5   steps

 *******************************************************************************
  
 
                           -------------------------------
                                      Unit Cell
                           -------------------------------
        Real Lattice(A)                      Reciprocal Lattice(1/A)
   3.8466610   0.0000000   0.0000000        1.6334128   0.0000000   0.0000000
   0.0000000   9.4223560   0.0000000        0.0000000   0.6668380   0.0000000
   0.0000000   0.0000000  27.0981160        0.0000000   0.0000000   0.2318680
 
                       Lattice parameters(A)       Cell Angles
                    a =    3.846661          alpha =   90.000000
                    b =    9.422356          beta  =   90.000000
                    c =   27.098116          gamma =   90.000000
 
                       Current cell volume =  982.160629       A**3
 
                           -------------------------------
                                     Cell Contents
                           -------------------------------
                         Total number of ions in cell =   48
                      Total number of species in cell =    1
                        Max number of any one species =   48
 
            xxxxxxxxxxxxxxxxxxxxxxxxxxxxxxxxxxxxxxxxxxxxxxxxxxxxxxxxxxxx
            x  Element    Atom        Fractional coordinates of atoms  x
            x            Number           u          v          w      x
            x----------------------------------------------------------x
            x  Si           1         0.126256  -0.039314  -0.004197   x 
            x  Si           2         0.126480   0.040183   0.408113   x 
            x  Si           3         0.124416   0.286835   0.400896   x 
            x  Si           4         0.126207   0.380875   0.320974   x 
            x  Si           5         0.127203   0.629384   0.327684   x 
            x  Si           6         0.126986   0.709557   0.245103   x 
            x  Si           7         0.126292  -0.040878   0.243362   x 
            x  Si           8         0.126103   0.041567   0.160498   x 
            x  Si           9         0.126231   0.291150   0.158786   x 
            x  Si          10         0.125814   0.371305   0.076195   x 
            x  Si          11         0.127027   0.619800   0.082892   x 
            x  Si          12         0.127660   0.714019   0.002991   x 
            x  Si          13         0.626528  -0.046274   0.368952   x 
            x  Si          14         0.626285   0.039378   0.285784   x 
            x  Si          15         0.626214   0.290623   0.281917   x 
            x  Si          16         0.626242   0.375046   0.200051   x 
            x  Si          17         0.626975   0.625780   0.203802   x 
            x  Si          18         0.627015   0.710143   0.121933   x 
            x  Si          19         0.626094  -0.038604   0.118072   x 
            x  Si          20         0.626282   0.047091   0.034930   x 
            x  Si          21         0.625790   0.295228   0.032505   x 
            x  Si          22         0.624741   0.358901   0.451916   x 
            x  Si          23         0.627299   0.606909   0.451928   x 
            x  Si          24         0.627218   0.705604   0.371333   x 
            x  Si          25         0.126414   0.040264   0.495806   x 
            x  Si          26         0.124997   0.286930   0.502988   x 
            x  Si          27         0.125722   0.381145   0.582888   x 
            x  Si          28         0.126740   0.629648   0.576188   x 
            x  Si          29         0.126333   0.709791   0.658781   x 
            x  Si          30         0.126451   0.959380   0.660497   x 
            x  Si          31         0.126305   0.041826   0.743360   x 
            x  Si          32         0.125590   0.291389   0.745101   x 
            x  Si          33         0.125428   0.371556   0.827684   x 
            x  Si          34         0.126288   0.620063   0.820975   x 
            x  Si          35         0.128049   0.714085   0.900897   x 
            x  Si          36         0.126097   0.960754   0.908112   x 
            x  Si          37         0.625185   0.394029   0.951934   x 
            x  Si          38         0.627747   0.642039   0.951917   x 
            x  Si          39         0.626762   0.705700   0.532497   x 
            x  Si          40         0.626391   0.953851   0.534934   x 
            x  Si          41         0.626458   0.039551   0.618072   x 
            x  Si          42         0.625725   0.290788   0.621928   x 
            x  Si          43         0.625600   0.375156   0.703801   x 
            x  Si          44         0.626314   0.625890   0.700047   x 
            x  Si          45         0.626282   0.710322   0.781916   x 
            x  Si          46         0.626308   0.961566   0.785782   x 
            x  Si          47         0.626064   0.047208   0.868948   x 
            x  Si          48         0.625415   0.295352   0.871338   x 
            xxxxxxxxxxxxxxxxxxxxxxxxxxxxxxxxxxxxxxxxxxxxxxxxxxxxxxxxxxxx
 
 
                         No user defined ionic velocities
 
                           -------------------------------
                                   Details of Species
                           -------------------------------
 
                               Mass of species in AMU
                                    Si   28.0855000
 
                          Electric Quadrupole Moment (Barn)
                                    Si    1.0000000 No Isotope Defined
 
                          Files used for pseudopotentials:
                                    Si Pseudopotential generated on-the-fly
 
                           -------------------------------
                              k-Points For BZ Sampling
                           -------------------------------
                       MP grid size for SCF calculation is  9  4  2
                            with an offset of   0.000  0.000  0.000
                       Number of kpoints used =            36
 
                           -------------------------------
                               Symmetry and Constraints
                           -------------------------------
 
                      Maximum deviation from symmetry =  0.00000         ANG
 
         There are no symmetry operations specified or generated for this cell
                      Number of ionic constraints     =           3
                      Point group of crystal =     1: C1, 1, 1
                      Space group of crystal =     4: P2_1, P 2yb
 
 
                         Centre of mass is constrained
             Set iprint > 1 for details of linear ionic constraints
 
                         Number of cell constraints= 0
                         Cell constraints are:  1 2 3 4 5 6
 
                         External pressure/stress (GPa)
                          0.00000   0.00000   0.00000
                                    0.00000   0.00000
                                              0.00000
  
+---------------- MEMORY AND SCRATCH DISK ESTIMATES PER PROCESS --------------+
|                                                     Memory          Disk    |
| Model and support data                              596.6 MB         0.0 MB |
| Electronic energy minimisation requirements          37.7 MB         0.0 MB |
|                                               ----------------------------- |
| Approx. total storage required per process          634.3 MB         0.0 MB |
|                                                                             |
| Requirements will fluctuate during execution and may exceed these estimates |
+-----------------------------------------------------------------------------+
Calculating finite basis set correction with  3 cut-off energies.
Calculating total energy with cut-off of  240.000eV.
------------------------------------------------------------------------ <-- SCF
SCF loop      Energy           Fermi           Energy gain       Timer   <-- SCF
                               energy          per atom          (sec)   <-- SCF
------------------------------------------------------------------------ <-- SCF
Initial  -4.02884604E+002  0.00000000E+000                        22.06  <-- SCF
      1  -7.42229769E+003  6.02385282E+000   1.46237773E+002      29.24  <-- SCF
      2  -8.18245390E+003  4.33202081E+000   1.58365875E+001      33.98  <-- SCF
      3  -8.20671573E+003  4.20120727E+000   5.05454952E-001      38.99  <-- SCF
      4  -8.20347967E+003  4.30954338E+000  -6.74179500E-002      61.59  <-- SCF
      5  -8.20326909E+003  4.42334434E+000  -4.38719087E-003      84.35  <-- SCF
      6  -8.20328328E+003  4.41835889E+000   2.95764112E-004     106.87  <-- SCF
      7  -8.20328931E+003  4.43323806E+000   1.25578805E-004     128.96  <-- SCF
      8  -8.20328965E+003  4.43470862E+000   7.11472097E-006     151.35  <-- SCF
      9  -8.20328967E+003  4.43487240E+000   4.28161662E-007     172.95  <-- SCF
     10  -8.20328968E+003  4.43490119E+000   4.36184594E-008     193.47  <-- SCF
     11  -8.20328968E+003  4.43488796E+000   6.74750888E-009     213.92  <-- SCF
------------------------------------------------------------------------ <-- SCF
 
Final energy, E             =  -8203.284348945     eV
Final free energy (E-TS)    =  -8203.289676067     eV
(energies not corrected for finite basis set)
 
NB est. 0K energy (E-0.5TS)      =  -8203.287012506     eV
 
Calculating total energy with cut-off of  245.000eV.
------------------------------------------------------------------------ <-- SCF
SCF loop      Energy           Fermi           Energy gain       Timer   <-- SCF
                               energy          per atom          (sec)   <-- SCF
------------------------------------------------------------------------ <-- SCF
Initial  -8.20328435E+003  0.00000000E+000                       249.06  <-- SCF
      1  -8.20333786E+003  4.43436787E+000   1.11488561E-003     254.84  <-- SCF
      2  -8.20333793E+003  4.43436754E+000   1.42645752E-006     276.90  <-- SCF
      3  -8.20333796E+003  4.43456285E+000   6.41804397E-007     297.77  <-- SCF
      4  -8.20333796E+003  4.43462852E+000   3.74467102E-008     318.16  <-- SCF
      5  -8.20333796E+003  4.43463672E+000   7.73394081E-010     338.54  <-- SCF
------------------------------------------------------------------------ <-- SCF
 
Final energy, E             =  -8203.332637131     eV
Final free energy (E-TS)    =  -8203.337963273     eV
(energies not corrected for finite basis set)
 
NB est. 0K energy (E-0.5TS)      =  -8203.335300202     eV
 
Calculating total energy with cut-off of  250.000eV.
------------------------------------------------------------------------ <-- SCF
SCF loop      Energy           Fermi           Energy gain       Timer   <-- SCF
                               energy          per atom          (sec)   <-- SCF
------------------------------------------------------------------------ <-- SCF
Initial  -8.20333264E+003  0.00000000E+000                       373.62  <-- SCF
      1  -8.20337939E+003  4.43451942E+000   9.74111881E-004     379.53  <-- SCF
      2  -8.20337945E+003  4.43451919E+000   1.20081377E-006     401.61  <-- SCF
      3  -8.20337948E+003  4.43447562E+000   5.12256409E-007     422.44  <-- SCF
      4  -8.20337948E+003  4.43449376E+000   2.16424022E-008     442.84  <-- SCF
      5  -8.20337948E+003  4.43448692E+000  -3.59995610E-009     463.15  <-- SCF
------------------------------------------------------------------------ <-- SCF
 
Final energy, E             =  -8203.374150447     eV
Final free energy (E-TS)    =  -8203.379477468     eV
(energies not corrected for finite basis set)
 
NB est. 0K energy (E-0.5TS)      =  -8203.376813957     eV
 
 For future reference: finite basis dEtot/dlog(Ecut) =      -2.195091eV
 Total energy corrected for finite basis set =   -8203.379460 eV
 
+---------------- MEMORY AND SCRATCH DISK ESTIMATES PER PROCESS --------------+
|                                                     Memory          Disk    |
| Model and support data                              596.6 MB         0.0 MB |
| Electronic energy minimisation requirements          37.7 MB         0.0 MB |
| Geometry minimisation requirements                   47.5 MB         0.0 MB |
|                                               ----------------------------- |
| Approx. total storage required per process          681.8 MB         0.0 MB |
|                                                                             |
| Requirements will fluctuate during execution and may exceed these estimates |
+-----------------------------------------------------------------------------+
 
 
 *********************************** Forces ***********************************
 *                                                                            *
 *                        Cartesian components (eV/A)                         *
 * -------------------------------------------------------------------------- *
 *                   x                    y                    z              *
 *                                                                            *
 * Si        1      0.00448              0.09984             -0.00775         *
 * Si        2     -0.00329             -0.10479              0.00275         *
 * Si        3      0.01543              0.15260             -0.64853         *
 * Si        4     -0.00129             -0.20693             -0.01229         *
 * Si        5     -0.00320             -0.09370              0.01247         *
 * Si        6     -0.00188             -0.01695             -0.01280         *
 * Si        7      0.00092             -0.01541              0.00087         *
 * Si        8      0.00090              0.01830              0.00154         *
 * Si        9     -0.00131              0.01714              0.00893         *
 * Si       10      0.00371              0.09415             -0.01450         *
 * Si       11     -0.00253              0.21074              0.01338         *
 * Si       12     -0.00357             -0.15396              0.64557         *
 * Si       13     -0.00057              0.09374             -0.10081         *
 * Si       14      0.00150              0.03286             -0.00787         *
 * Si       15     -0.00001              0.06409              0.03262         *
 * Si       16      0.00084             -0.02334             -0.07175         *
 * Si       17     -0.00169              0.02162              0.07468         *
 * Si       18     -0.00205             -0.06424             -0.03431         *
 * Si       19      0.00301             -0.03495              0.00915         *
 * Si       20     -0.00317             -0.08668              0.10087         *
 * Si       21      0.00266              0.18382             -0.15770         *
 * Si       22      0.00496              0.49575              0.00300         *
 * Si       23     -0.00365              0.08684             -0.00335         *
 * Si       24     -0.00496             -0.18517              0.16366         *
 * Si       25     -0.00472             -0.10048             -0.00814         *
 * Si       26      0.00143              0.15422              0.64557         *
 * Si       27      0.00145             -0.21067              0.01378         *
 * Si       28     -0.00343             -0.09560             -0.01376         *
 * Si       29      0.00113             -0.01713              0.00940         *
 * Si       30     -0.00102             -0.01899              0.00171         *
 * Si       31     -0.00117              0.01481              0.00174         *
 * Si       32      0.00184              0.01667             -0.01199         *
 * Si       33      0.00290              0.09357              0.01280         *
 * Si       34      0.00148              0.20695             -0.01303         *
 * Si       35     -0.01464             -0.15055             -0.64796         *
 * Si       36      0.00381              0.10352              0.00190         *
 * Si       37      0.00406             -0.08667             -0.00225         *
 * Si       38     -0.00265             -0.49581              0.00368         *
 * Si       39     -0.00228             -0.18158             -0.15732         *
 * Si       40      0.00252              0.08625              0.09974         *
 * Si       41     -0.00210              0.03363              0.00929         *
 * Si       42      0.00143              0.06606             -0.03349         *
 * Si       43      0.00213             -0.02133              0.07378         *
 * Si       44     -0.00066              0.02413             -0.07125         *
 * Si       45      0.00038             -0.06481              0.03250         *
 * Si       46     -0.00151             -0.03291             -0.00790         *
 * Si       47     -0.00015             -0.09178             -0.09953         *
 * Si       48      0.00455              0.18316              0.16289         *
 *                                                                            *
 ******************************************************************************
 
 ***************** Stress Tensor *****************
 *                                               *
 *          Cartesian components (GPa)           *
 * --------------------------------------------- *
 *             x             y             z     *
 *                                               *
 *  x      1.116064     -0.004969     -0.000089  *
 *  y     -0.004969     -1.583003     -0.000243  *
 *  z     -0.000089     -0.000243     -0.632916  *
 *                                               *
 *  Pressure:    0.3666                          *
 *                                               *
 *************************************************
 BFGS: finished iteration     0 with enthalpy= -8.20337946E+003 eV
  
 +-----------+-----------------+-----------------+------------+-----+ <-- BFGS
 | Parameter |      value      |    tolerance    |    units   | OK? | <-- BFGS
 +-----------+-----------------+-----------------+------------+-----+ <-- BFGS
 |  dE/ion   |   0.000000E+000 |   2.000000E-005 |         eV | No  | <-- BFGS
 |  |F|max   |   6.664165E-001 |   1.000000E-002 |       eV/A | No  | <-- BFGS
 |  |dR|max  |   0.000000E+000 |   1.000000E-003 |          A | No  | <-- BFGS
 |   Smax    |   1.583003E+000 |   1.000000E-001 |        GPa | No  | <-- BFGS
 +-----------+-----------------+-----------------+------------+-----+ <-- BFGS
  

================================================================================
 Starting BFGS iteration          1 ...
================================================================================
  
 +------------+-------------+-------------+-----------------+ <-- min BFGS
 |    Step    |   lambda    |   F.delta   |    enthalpy     | <-- min BFGS
 +------------+-------------+-------------+-----------------+ <-- min BFGS
 |  previous  |    0.000000 |    0.000993 |    -8203.379460 | <-- min BFGS
 +------------+-------------+-------------+-----------------+ <-- min BFGS
  

--------------------------------------------------------------------------------
 BFGS: starting iteration         1 with trial guess (lambda=  1.000000)
--------------------------------------------------------------------------------
 
                           -------------------------------
                                      Unit Cell
                           -------------------------------
        Real Lattice(A)              Reciprocal Lattice(1/A)
   3.8437989   0.0000127   0.0000002        1.6346290  -0.0000054  -0.0000001
   0.0000312   9.4322997   0.0000015       -0.0000022   0.6661350  -0.0000001
   0.0000016   0.0000044  27.1095499       -0.0000000  -0.0000000   0.2317702
 
                       Lattice parameters(A)       Cell Angles
                    a =    3.843799          alpha =   89.999981
                    b =    9.432300          beta  =   89.999993
                    c =   27.109550          gamma =   89.999620
 
                Current cell volume =  982.880143 A**3
 
                           -------------------------------
                                     Cell Contents
                           -------------------------------
 
            xxxxxxxxxxxxxxxxxxxxxxxxxxxxxxxxxxxxxxxxxxxxxxxxxxxxxxxxxxxx
            x  Element    Atom        Fractional coordinates of atoms  x
            x            Number           u          v          w      x
            x----------------------------------------------------------x
            x  Si           1         0.126260  -0.039277  -0.004198   x
            x  Si           2         0.126477   0.040145   0.408113   x
            x  Si           3         0.124430   0.286892   0.400813   x
            x  Si           4         0.126205   0.380798   0.320972   x
            x  Si           5         0.127200   0.629350   0.327685   x
            x  Si           6         0.126984   0.709551   0.245102   x
            x  Si           7         0.126293  -0.040884   0.243362   x
            x  Si           8         0.126104   0.041574   0.160498   x
            x  Si           9         0.126230   0.291157   0.158787   x
            x  Si          10         0.125817   0.371339   0.076193   x
            x  Si          11         0.127025   0.619878   0.082893   x
            x  Si          12         0.127657   0.713962   0.003074   x
            x  Si          13         0.626528  -0.046239   0.368939   x
            x  Si          14         0.626287   0.039390   0.285783   x
            x  Si          15         0.626214   0.290646   0.281921   x
            x  Si          16         0.626243   0.375037   0.200041   x
            x  Si          17         0.626974   0.625788   0.203812   x
            x  Si          18         0.627013   0.710119   0.121928   x
            x  Si          19         0.626097  -0.038617   0.118073   x
            x  Si          20         0.626279   0.047059   0.034943   x
            x  Si          21         0.625792   0.295296   0.032485   x
            x  Si          22         0.624745   0.359084   0.451916   x
            x  Si          23         0.627295   0.606942   0.451928   x
            x  Si          24         0.627214   0.705535   0.371354   x
            x  Si          25         0.126410   0.040227   0.495805   x
            x  Si          26         0.124999   0.286987   0.503071   x
            x  Si          27         0.125723   0.381067   0.582890   x
            x  Si          28         0.126737   0.629613   0.576186   x
            x  Si          29         0.126334   0.709785   0.658782   x
            x  Si          30         0.126450   0.959373   0.660498   x
            x  Si          31         0.126304   0.041832   0.743360   x
            x  Si          32         0.125592   0.291395   0.745100   x
            x  Si          33         0.125431   0.371591   0.827685   x
            x  Si          34         0.126289   0.620140   0.820973   x
            x  Si          35         0.128036   0.714029   0.900813   x
            x  Si          36         0.126100   0.960792   0.908113   x
            x  Si          37         0.625189   0.393997   0.951933   x
            x  Si          38         0.627745   0.641856   0.951917   x
            x  Si          39         0.626760   0.705633   0.532476   x
            x  Si          40         0.626393   0.953883   0.534947   x
            x  Si          41         0.626456   0.039564   0.618074   x
            x  Si          42         0.625727   0.290812   0.621923   x
            x  Si          43         0.625602   0.375149   0.703811   x
            x  Si          44         0.626314   0.625899   0.700038   x
            x  Si          45         0.626282   0.710298   0.781920   x
            x  Si          46         0.626307   0.961554   0.785781   x
            x  Si          47         0.626064   0.047174   0.868935   x
            x  Si          48         0.625419   0.295420   0.871359   x
            xxxxxxxxxxxxxxxxxxxxxxxxxxxxxxxxxxxxxxxxxxxxxxxxxxxxxxxxxxxx
 
 
------------------------------------------------------------------------ <-- SCF
SCF loop      Energy           Fermi           Energy gain       Timer   <-- SCF
                               energy          per atom          (sec)   <-- SCF
------------------------------------------------------------------------ <-- SCF
Initial  -8.20339198E+003  0.00000000E+000                      1430.50  <-- SCF
      1  -8.20341027E+003  4.42697182E+000   3.81084491E-004    1436.88  <-- SCF
      2  -8.20341032E+003  4.42697125E+000   1.01873402E-006    1459.90  <-- SCF
      3  -8.20340520E+003  4.43073710E+000  -1.06673788E-004    1482.52  <-- SCF
      4  -8.20340503E+003  4.42831474E+000  -3.61420214E-006    1505.28  <-- SCF
      5  -8.20340500E+003  4.42882191E+000  -5.67064850E-007    1527.40  <-- SCF
      6  -8.20340499E+003  4.42862826E+000  -8.38844810E-008    1548.85  <-- SCF
      7  -8.20340499E+003  4.42854061E+000  -1.16152190E-008    1569.51  <-- SCF
------------------------------------------------------------------------ <-- SCF
 
Final energy, E             =  -8203.399733472     eV
Final free energy (E-TS)    =  -8203.404993762     eV
(energies not corrected for finite basis set)
 
NB est. 0K energy (E-0.5TS)      =  -8203.402363617     eV
 
 
 *********************************** Forces ***********************************
 *                                                                            *
 *                        Cartesian components (eV/A)                         *
 * -------------------------------------------------------------------------- *
 *                   x                    y                    z              *
 *                                                                            *
 * Si        1      0.00425              0.06709             -0.01425         *
 * Si        2     -0.00327             -0.07169              0.00939         *
 * Si        3      0.01528              0.12795             -0.60945         *
 * Si        4     -0.00121             -0.17918             -0.01582         *
 * Si        5     -0.00324             -0.10992              0.00417         *
 * Si        6     -0.00192             -0.00207             -0.00128         *
 * Si        7      0.00098             -0.02886             -0.00625         *
 * Si        8      0.00093              0.03166              0.00912         *
 * Si        9     -0.00118              0.00249             -0.00208         *
 * Si       10      0.00365              0.11047             -0.00591         *
 * Si       11     -0.00248              0.18285              0.01691         *
 * Si       12     -0.00359             -0.12970              0.60625         *
 * Si       13     -0.00061              0.06681             -0.10466         *
 * Si       14      0.00143              0.04646             -0.00332         *
 * Si       15     -0.00001              0.04642              0.01743         *
 * Si       16      0.00074             -0.00830             -0.05806         *
 * Si       17     -0.00166              0.00668              0.06112         *
[...]
 *  x      0.000897      0.012647      0.004755  *
 *  y      0.012647      0.000473     -0.005935  *
 *  z      0.004755     -0.005935     -0.001155  *
 *                                               *
 *  Pressure:   -0.0001                          *
 *                                               *
 *************************************************
  
 +------------+-------------+-------------+-----------------+ <-- min BFGS
 |    Step    |   lambda    |   F.delta   |    enthalpy     | <-- min BFGS
 +------------+-------------+-------------+-----------------+ <-- min BFGS
 |  previous  |    0.000000 |  3.770E-007 |    -8203.609198 | <-- min BFGS
 | trial step |    1.000000 |  2.414E-007 |    -8203.609205 | <-- min BFGS
 +------------+-------------+-------------+-----------------+ <-- min BFGS
  
 BFGS: finished iteration     8 with enthalpy= -8.20360920E+003 eV
  
 +-----------+-----------------+-----------------+------------+-----+ <-- BFGS
 | Parameter |      value      |    tolerance    |    units   | OK? | <-- BFGS
 +-----------+-----------------+-----------------+------------+-----+ <-- BFGS
 |  dE/ion   |   1.515239E-007 |   2.000000E-005 |         eV | Yes | <-- BFGS
 |  |F|max   |   9.411320E-003 |   1.000000E-002 |       eV/A | Yes | <-- BFGS
 |  |dR|max  |   4.407155E-004 |   1.000000E-003 |          A | Yes | <-- BFGS
 |   Smax    |   1.264703E-002 |   1.000000E-001 |        GPa | Yes | <-- BFGS
 +-----------+-----------------+-----------------+------------+-----+ <-- BFGS
  
 BFGS: Geometry optimization completed successfully.

================================================================================
 BFGS: Final Configuration:
================================================================================
 
                           -------------------------------
                                      Unit Cell
                           -------------------------------
        Real Lattice(A)              Reciprocal Lattice(1/A)
   3.8043335   0.0002155   0.0000883        1.6515864  -0.0000912  -0.0000371
   0.0005251   9.5067700  -0.0002918       -0.0000374   0.6609169   0.0000204
   0.0006121  -0.0008422  27.2491319       -0.0000054   0.0000071   0.2305830
 
                       Lattice parameters(A)       Cell Angles
                    a =    3.804334          alpha =   90.003529
                    b =    9.506770          beta  =   89.997384
                    c =   27.249132          gamma =   89.993589
 
                Current cell volume =  985.517271 A**3
 
                           -------------------------------
                                     Cell Contents
                           -------------------------------
 
            xxxxxxxxxxxxxxxxxxxxxxxxxxxxxxxxxxxxxxxxxxxxxxxxxxxxxxxxxxxx
            x  Element    Atom        Fractional coordinates of atoms  x
            x            Number           u          v          w      x
            x----------------------------------------------------------x
            x  Si           1         0.126323  -0.046148  -0.004198   x
            x  Si           2         0.126319   0.047111   0.408062   x
            x  Si           3         0.126769   0.293883   0.399276   x
            x  Si           4         0.126472   0.380924   0.319614   x
            x  Si           5         0.126016   0.628228   0.328086   x
            x  Si           6         0.126138   0.710401   0.246097   x
            x  Si           7         0.126258  -0.041148   0.243142   x
            x  Si           8         0.126503   0.042050   0.160713   x
            x  Si           9         0.126487   0.290505   0.157777   x
            x  Si          10         0.126585   0.372703   0.075791   x
            x  Si          11         0.126127   0.620007   0.084253   x
            x  Si          12         0.125929   0.707080   0.004590   x
            x  Si          13         0.626220  -0.042024   0.368318   x
            x  Si          14         0.626334   0.041741   0.285374   x
            x  Si          15         0.626390   0.291316   0.280357   x
            x  Si          16         0.626548   0.375781   0.199013   x
            x  Si          17         0.626073   0.625139   0.204858   x
            x  Si          18         0.626211   0.709601   0.123514   x
            x  Si          19         0.626418  -0.040829   0.118479   x
            x  Si          20         0.626431   0.042985   0.035542   x
            x  Si          21         0.626532   0.291936   0.032149   x
            x  Si          22         0.626759   0.371246   0.451939   x
            x  Si          23         0.625879   0.616112   0.451940   x
            x  Si          24         0.626071   0.709026   0.371717   x
            x  Si          25         0.126234   0.047108   0.495814   x
            x  Si          26         0.126664   0.293878   0.504605   x
            x  Si          27         0.126398   0.380927   0.584260   x
            x  Si          28         0.126012   0.628227   0.575801   x
            x  Si          29         0.126093   0.710425   0.657779   x
            x  Si          30         0.126073   0.958868   0.660721   x
            x  Si          31         0.126302   0.042079   0.743139   x
            x  Si          32         0.126439   0.290522   0.746097   x
            x  Si          33         0.126549   0.372713   0.828075   x
            x  Si          34         0.126150   0.620010   0.819611   x
            x  Si          35         0.125849   0.707086   0.899262   x
            x  Si          36         0.126283   0.953855   0.908052   x
            x  Si          37         0.626805   0.384846   0.951925   x
            x  Si          38         0.625851   0.629717   0.951926   x
            x  Si          39         0.626041   0.709011   0.532157   x
            x  Si          40         0.626153   0.957956   0.535554   x
            x  Si          41         0.626125   0.041755   0.618485   x
            x  Si          42         0.626348   0.291317   0.623525   x
            x  Si          43         0.626472   0.375799   0.704856   x
            x  Si          44         0.626064   0.625149   0.699018   x
            x  Si          45         0.626196   0.709622   0.780351   x
            x  Si          46         0.626258   0.959185   0.785374   x
            x  Si          47         0.626352   0.042984   0.868306   x
            x  Si          48         0.626523   0.291927   0.871712   x
            xxxxxxxxxxxxxxxxxxxxxxxxxxxxxxxxxxxxxxxxxxxxxxxxxxxxxxxxxxxx
 
 
 BFGS: Final Enthalpy     = -8.20360920E+003 eV
 BFGS: Final <frequency>  =   10388.36077 cm-1
 BFGS: Final bulk modulus =     104.97880 GPa
 
 *********************************** Forces ***********************************
 *                                                                            *
 *                        Cartesian components (eV/A)                         *
 * -------------------------------------------------------------------------- *
 *                   x                    y                    z              *
 *                                                                            *
 * Si        1      0.00425             -0.00416             -0.00128         *
 * Si        2     -0.00437              0.00397              0.00126         *
 * Si        3     -0.00212              0.00161             -0.00180         *
 * Si        4     -0.00525             -0.00367              0.00111         *
 * Si        5      0.00502              0.00088             -0.00109         *
 * Si        6     -0.00406              0.00055              0.00678         *
 * Si        7      0.00486              0.00182              0.00138         *
 * Si        8     -0.00563             -0.00156             -0.00131         *
 * Si        9      0.00416             -0.00033             -0.00702         *
 * Si       10     -0.00481             -0.00091              0.00085         *
 * Si       11      0.00557              0.00361             -0.00136         *
 * Si       12      0.00056             -0.00188              0.00211         *
 * Si       13      0.00541             -0.00122              0.00155         *
 * Si       14     -0.00473              0.00379              0.00720         *
 * Si       15      0.00482             -0.00169              0.00246         *
 * Si       16     -0.00546              0.00152              0.00436         *
 * Si       17      0.00568             -0.00135             -0.00449         *
 * Si       18     -0.00451              0.00183             -0.00242         *
 * Si       19      0.00407             -0.00347             -0.00700         *
 * Si       20     -0.00547              0.00112             -0.00149         *
 * Si       21      0.00248              0.00112              0.00315         *
 * Si       22     -0.00260             -0.00237              0.00014         *
 * Si       23      0.00145              0.00174             -0.00164         *
 * Si       24     -0.00234             -0.00134             -0.00314         *
 * Si       25     -0.00203              0.00328             -0.00041         *
 * Si       26     -0.00075              0.00122             -0.00022         *
 * Si       27     -0.00288             -0.00398              0.00212         *
 * Si       28      0.00277              0.00127             -0.00175         *
 * Si       29     -0.00194             -0.00051             -0.00396         *
 * Si       30      0.00347              0.00244             -0.00406         *
 * Si       31     -0.00267             -0.00267              0.00411         *
 * Si       32      0.00179              0.00027              0.00384         *
 * Si       33     -0.00296             -0.00100              0.00172         *
 * Si       34      0.00260              0.00385             -0.00210         *
 * Si       35      0.00224             -0.00093              0.00015         *
 * Si       36      0.00222             -0.00331              0.00047         *
 * Si       37     -0.00160             -0.00144              0.00162         *
 * Si       38      0.00260              0.00171             -0.00045         *
 * Si       39     -0.00054             -0.00160              0.00603         *
 * Si       40      0.00331             -0.00050             -0.00370         *
 * Si       41     -0.00180              0.00262             -0.00446         *
 * Si       42      0.00215             -0.00079             -0.00543         *
 * Si       43     -0.00332              0.00098             -0.00112         *
 * Si       44      0.00310             -0.00084              0.00117         *
 * Si       45     -0.00245              0.00097              0.00562         *
 * Si       46      0.00251             -0.00284              0.00459         *
 * Si       47     -0.00322              0.00070              0.00378         *
 * Si       48      0.00041              0.00150             -0.00588         *
 *                                                                            *
 ******************************************************************************
 
 ***************** Stress Tensor *****************
 *                                               *
 *          Cartesian components (GPa)           *
 * --------------------------------------------- *
 *             x             y             z     *
 *                                               *
 *  x      0.000897      0.012647      0.004755  *
 *  y      0.012647      0.000473     -0.005935  *
 *  z      0.004755     -0.005935     -0.001155  *
 *                                               *
 *  Pressure:   -0.0001                          *
 *                                               *
 *************************************************
 
 Pseudo atomic calculation performed for Si 3s2 3p2
 
 Converged in 18 iterations to a total energy of -165.0611 eV
 
Charge spilling parameter for spin component 1 = 0.96%
 
     Atomic Populations (Mulliken)
     -----------------------------
Species   Ion     s      p      d      f     Total  Charge (e)
==============================================================
  Si       1     1.38   2.63   0.00   0.00   4.01    -0.01
  Si       2     1.38   2.63   0.00   0.00   4.01    -0.01
  Si       3     1.46   2.50   0.00   0.00   3.96     0.04
  Si       4     1.37   2.64   0.00   0.00   4.02    -0.02
  Si       5     1.39   2.60   0.00   0.00   3.99     0.01
  Si       6     1.38   2.63   0.00   0.00   4.01    -0.01
  Si       7     1.38   2.62   0.00   0.00   4.00    -0.00
  Si       8     1.38   2.62   0.00   0.00   4.00    -0.00
  Si       9     1.38   2.63   0.00   0.00   4.01    -0.01
  Si      10     1.39   2.60   0.00   0.00   3.99     0.01
  Si      11     1.37   2.64   0.00   0.00   4.02    -0.02
  Si      12     1.46   2.50   0.00   0.00   3.96     0.04
  Si      13     1.38   2.60   0.00   0.00   3.99     0.01
  Si      14     1.39   2.61   0.00   0.00   3.99     0.01
  Si      15     1.38   2.61   0.00   0.00   3.99     0.01
  Si      16     1.38   2.62   0.00   0.00   4.00     0.00
  Si      17     1.38   2.62   0.00   0.00   4.00     0.00
  Si      18     1.38   2.61   0.00   0.00   3.99     0.01
  Si      19     1.39   2.61   0.00   0.00   3.99     0.01
  Si      20     1.38   2.60   0.00   0.00   3.99     0.01
  Si      21     1.39   2.60   0.00   0.00   3.99     0.01
  Si      22     1.38   2.68   0.00   0.00   4.06    -0.06
  Si      23     1.42   2.63   0.00   0.00   4.05    -0.05
  Si      24     1.39   2.60   0.00   0.00   3.99     0.01
  Si      25     1.38   2.63   0.00   0.00   4.01    -0.01
  Si      26     1.46   2.50   0.00   0.00   3.96     0.04
  Si      27     1.37   2.64   0.00   0.00   4.02    -0.02
  Si      28     1.39   2.60   0.00   0.00   3.99     0.01
  Si      29     1.38   2.63   0.00   0.00   4.01    -0.01
  Si      30     1.38   2.62   0.00   0.00   4.00    -0.00
  Si      31     1.38   2.62   0.00   0.00   4.00    -0.00
  Si      32     1.38   2.63   0.00   0.00   4.01    -0.01
  Si      33     1.39   2.60   0.00   0.00   3.99     0.01
  Si      34     1.37   2.64   0.00   0.00   4.02    -0.02
  Si      35     1.46   2.50   0.00   0.00   3.96     0.04
  Si      36     1.38   2.63   0.00   0.00   4.01    -0.01
  Si      37     1.42   2.63   0.00   0.00   4.05    -0.05
  Si      38     1.38   2.68   0.00   0.00   4.06    -0.06
  Si      39     1.39   2.60   0.00   0.00   3.99     0.01
  Si      40     1.38   2.60   0.00   0.00   3.99     0.01
  Si      41     1.39   2.61   0.00   0.00   3.99     0.01
  Si      42     1.38   2.61   0.00   0.00   3.99     0.01
  Si      43     1.38   2.62   0.00   0.00   4.00     0.00
  Si      44     1.38   2.62   0.00   0.00   4.00     0.00
  Si      45     1.38   2.61   0.00   0.00   3.99     0.01
  Si      46     1.39   2.61   0.00   0.00   3.99     0.01
  Si      47     1.38   2.60   0.00   0.00   3.99     0.01
  Si      48     1.39   2.60   0.00   0.00   3.99     0.01
==============================================================
 
            Bond              Population      Length (A)
============================================================
        Si 34 -- Si 35             0.66        2.32288
        Si 26 -- Si 27             0.66        2.32290
        Si 3  -- Si 4              0.66        2.32314
        Si 11 -- Si 12             0.66        2.32325
        Si 22 -- Si 23             0.75        2.32789
        Si 37 -- Si 38             0.74        2.32793
        Si 4  -- Si 15             1.51        2.34231
        Si 11 -- Si 18             1.51        2.34231
        Si 34 -- Si 45             1.51        2.34259
        Si 27 -- Si 42             1.51        2.34263
        Si 1  -- Si 20             1.52        2.34662
        Si 2  -- Si 13             1.52        2.34672
        Si 25 -- Si 40             1.52        2.34691
        Si 36 -- Si 47             1.52        2.34695
        Si 6  -- Si 17             1.52        2.35296
        Si 9  -- Si 16             1.52        2.35297
        Si 29 -- Si 44             1.52        2.35325
        Si 32 -- Si 43             1.52        2.35326
        Si 44 -- Si 45             0.69        2.35721
        Si 42 -- Si 43             0.69        2.35722
        Si 37 -- Si 48             0.74        2.35746
        Si 23 -- Si 39             0.74        2.35749
        Si 17 -- Si 18             0.69        2.35755
        Si 15 -- Si 16             0.69        2.35756
        Si 23 -- Si 24             0.74        2.35776
        Si 21 -- Si 37             0.74        2.35779
        Si 35 -- Si 36             0.71        2.35816
        Si 25 -- Si 26             0.70        2.35818
        Si 2  -- Si 3              0.70        2.35820
        Si 1  -- Si 12             0.70        2.35821
        Si 8  -- Si 19             1.52        2.35830
        Si 7  -- Si 14             1.52        2.35833
        Si 30 -- Si 41             1.52        2.35859
        Si 31 -- Si 46             1.52        2.35861
        Si 33 -- Si 34             0.70        2.36229
        Si 27 -- Si 28             0.70        2.36232
        Si 10 -- Si 11             0.70        2.36233
        Si 4  -- Si 5              0.70        2.36236
        Si 29 -- Si 30             0.70        2.36324
        Si 31 -- Si 32             0.70        2.36326
        Si 6  -- Si 7              0.70        2.36335
        Si 8  -- Si 9              0.70        2.36336
        Si 32 -- Si 33             0.69        2.36648
        Si 28 -- Si 29             0.69        2.36650
        Si 5  -- Si 6              0.69        2.36680
        Si 9  -- Si 10             0.69        2.36684
        Si 47 -- Si 48             0.69        2.36846
        Si 39 -- Si 40             0.68        2.36847
        Si 20 -- Si 21             0.69        2.36852
        Si 13 -- Si 24             0.69        2.36853
        Si 5  -- Si 24             1.46        2.37073
        Si 10 -- Si 21             1.46        2.37077
        Si 33 -- Si 48             1.46        2.37099
        Si 28 -- Si 39             1.46        2.37107
        Si 43 -- Si 44             0.71        2.37586
        Si 16 -- Si 17             0.71        2.37593
        Si 45 -- Si 46             0.70        2.37648
        Si 41 -- Si 42             0.70        2.37648
        Si 18 -- Si 19             0.70        2.37658
        Si 14 -- Si 15             0.70        2.37659
        Si 30 -- Si 31             0.70        2.38104
        Si 7  -- Si 8              0.70        2.38137
        Si 1  -- Si 36             0.68        2.39112
        Si 2  -- Si 25             0.68        2.39115
        Si 40 -- Si 41             0.71        2.39607
        Si 46 -- Si 47             0.70        2.39609
        Si 19 -- Si 20             0.70        2.39637
        Si 13 -- Si 14             0.70        2.39638
        Si 12 -- Si 38             1.07        2.49333
        Si 22 -- Si 26             1.07        2.49347
        Si 3  -- Si 22             1.07        2.49358
        Si 35 -- Si 38             1.07        2.49374
        Si 3  -- Si 26            -0.47        2.87012
        Si 12 -- Si 35            -0.47        2.87012
============================================================
 

Writing analysis data to gb.castep_bin

Writing model to gb.check
 
 A BibTeX formatted list of references used in this run has been written to 
 gb.bib
 
Initialisation time =      9.02 s
Calculation time    =  16532.75 s
Finalisation time   =     14.38 s
Total time          =  16556.15 s
Peak Memory Use     = 3538712 kB
  
Overall parallel efficiency rating: Excellent (97%)                             
  
Data was distributed by:-
G-vector (4-way); efficiency rating: Excellent (98%)                            
k-point (36-way); efficiency rating: Excellent (99%)                            
