2
Lattice="3.9531819774429113 -1.5949468301058467e-16 -3.5384987660848876e-31 -1.9765909887214552 3.423556018248363 5.0346756313858754e-31 -5.863501944801323e-31 5.609432851065943e-31 2.383167669969051" Properties=species:S:1:pos:R:3:Z:I:1:forces:R:3 stress="6.699547732486839e-06 -1.5614914126214987e-21 2.4947950404797373e-36 -1.5614914126214987e-21 6.699547732486839e-06 -1.6501262826681957e-29 2.4947950404797373e-36 -1.6501262826681957e-29 1.091772779197015e-05" energy=-326.54494426 Minim_Constant_Volume=T Minim_Hydrostatic_Strain=F pbc="T T T"
Si       0.00000000      -0.00000000      -0.00000000       14       0.00000000       0.00000000      -0.00000000 
Si      -0.00000000       2.28237068       1.19158383       14      -0.00000000      -0.00000000       0.00000000 
2
Lattice="3.913700236432391 -2.3789823871653016e-16 -3.0462622342650527e-31 -1.956850118216195 3.3893638275476143 4.301351097160496e-31 -5.519368036239759e-31 5.226164284967736e-31 2.370687945776198" Properties=species:S:1:pos:R:3:Z:I:1:forces:R:3 stress="-0.051723856317235 4.093722805032764e-18 -1.5560277290598961e-32 4.093722805032764e-18 -0.05172385631723505 1.6772572724977153e-29 -1.5560277290598961e-32 1.6772572724977153e-29 -0.05171246521503283" energy=-326.5245516 Minim_Constant_Volume=T Minim_Hydrostatic_Strain=F pbc="T T T"
Si       0.00000000       0.00000000       0.00000000       14      -0.00000000       0.00000000       0.00000000 
Si      -0.00000000       2.25957589       1.18534397       14       0.00000000      -0.00000000      -0.00000000 
2
Lattice="3.8708392868439256 -2.2591785345100315e-16 6.156551670851239e-29 -1.9354196434219624 3.3522451563736793 2.9215022444479203e-31 3.6930648768943674e-29 2.205865982883807e-29 2.361317215224218" Properties=species:S:1:pos:R:3:Z:I:1:forces:R:3 stress="-0.11022729525717456 -5.335698423880697e-17 2.230038774809848e-29 -5.335698423880697e-17 -0.11022729525717456 -5.841522443613855e-29 2.230038774809848e-29 -5.841522443613855e-29 -0.11020960730147836" energy=-326.459683852 Minim_Constant_Volume=T Minim_Hydrostatic_Strain=F pbc="T T T"
Si       0.00000000      -0.00000000       0.00000000       14       0.00000000      -0.00000000      -0.00000000 
Si      -0.00000000       2.23483010       1.18065861       14      -0.00000000       0.00000000       0.00000000 
2
Lattice="3.823610373267186 -1.7222539763478217e-16 2.242239095310113e-28 -1.9118051866335926 3.311343717423083 3.5839212910847114e-28 1.3578613372851446e-28 3.313695188230884e-28 2.3562847528223587" Properties=species:S:1:pos:R:3:Z:I:1:forces:R:3 stress="-0.1744268115810255 3.945323932220386e-17 1.9619616458647486e-30 3.945323932220386e-17 -0.17442681158102558 -1.650758699765827e-29 1.9619616458647486e-30 -1.650758699765827e-29 -0.17440524426581744" energy=-326.345163389 Minim_Constant_Volume=T Minim_Hydrostatic_Strain=F pbc="T T T"
Si       0.00000000      -0.00000000       0.00000000       14       0.00000000      -0.00000000      -0.00000000 
Si      -0.00000000       2.20756248       1.17814238       14      -0.00000000       0.00000000       0.00000000 
2
Lattice="3.7709188208370903 9.447912149444413e-17 2.099665658710253e-28 -1.8854594104185445 3.2657114944537815 3.6504892338332543e-28 1.2508454543581978e-28 3.2635982882474e-28 2.357040962721327" Properties=species:S:1:pos:R:3:Z:I:1:forces:R:3 stress="-0.24297749014243508 -3.514347271267046e-17 1.8961642464131433e-29 -3.514347271267046e-17 -0.2429774901424347 3.348084335083925e-30 1.8961642464131433e-29 3.348084335083925e-30 -0.24294807003014757" energy=-326.17694325 Minim_Constant_Volume=T Minim_Hydrostatic_Strain=F pbc="T T T"
Si      -0.00000000       0.00000000      -0.00000000       14      -0.00000000       0.00000000      -0.00000000 
Si      -0.00000000       2.17714100       1.17852048       14       0.00000000      -0.00000000       0.00000000 
2
Lattice="3.713755245813918 -3.3445241382835267e-16 1.4626237140883528e-28 -1.8568776229069588 3.2162063863125763 5.690296912705301e-28 8.306173945090839e-29 4.448513186427543e-28 2.3625700065777377" Properties=species:S:1:pos:R:3:Z:I:1:forces:R:3 stress="-0.3167778284895945 -3.614220361486993e-17 -1.1238035970402485e-29 -3.614220361486993e-17 -0.31677782848959446 1.6403467176800104e-28 -1.1238035970402485e-29 1.6403467176800104e-28 -0.31677195380579387" energy=-325.951382452 Minim_Constant_Volume=T Minim_Hydrostatic_Strain=F pbc="T T T"
Si      -0.00000000       0.00000000      -0.00000000       14       0.00000000      -0.00000000       0.00000000 
Si      -0.00000000       2.14413759       1.18128500       14      -0.00000000       0.00000000      -0.00000000 
2
Lattice="3.9890533189439275 -1.9633584360729628e-16 -3.982647383361243e-31 -1.9945266594719633 3.45462151125607 5.69328561706136e-31 -6.170283691500574e-31 5.949101492506587e-31 2.399007221613259" Properties=species:S:1:pos:R:3:Z:I:1:forces:R:3 stress="0.04443536333896081 -8.165079128782679e-18 -2.812173189684836e-29 -8.165079128782679e-18 0.04443536333896082 -1.7544474933697166e-32 -2.812173189684836e-29 -1.7544474933697166e-32 0.044511691714867956" energy=-326.526516211 Minim_Constant_Volume=T Minim_Hydrostatic_Strain=F pbc="T T T"
Si       0.00000000      -0.00000000       0.00000000       14       0.00000000      -0.00000000      -0.00000000 
Si      -0.00000000       2.30308101       1.19950361       14      -0.00000000       0.00000000       0.00000000 
2
Lattice="4.0221500413765465 -9.81984423537212e-17 1.9880545262359498e-29 -2.011075020688273 3.48328411366472 -1.966713194886884e-29 1.1575301520137911e-29 -6.413848807099034e-30 2.417246320129982" Properties=species:S:1:pos:R:3:Z:I:1:forces:R:3 stress="0.08189985325056284 -8.259171856798097e-18 -6.555910043840371e-31 -8.259171856798097e-18 0.08189985325056286 4.8824002205491455e-29 -6.555910043840371e-31 4.8824002205491455e-29 0.08194599194981408" energy=-326.475108424 Minim_Constant_Volume=T Minim_Hydrostatic_Strain=F pbc="T T T"
Si       0.00000000      -0.00000000       0.00000000       14      -0.00000000       0.00000000      -0.00000000 
Si      -0.00000000       2.32218941       1.20862316       14      -0.00000000       0.00000000       0.00000000 
2
Lattice="4.052795917480187 8.075972562437085e-17 2.309745269546974e-29 -2.026397958740093 3.5098242208917028 1.5945178054318897e-28 1.3496627138761237e-29 1.1901074003570877e-28 2.4375140235240242" Properties=species:S:1:pos:R:3:Z:I:1:forces:R:3 stress="0.11280641629035805 -3.2431843320141495e-17 1.4036839977797688e-30 -3.2431843320141495e-17 0.11280641629035813 -1.9030972975302908e-29 1.4036839977797688e-30 -1.9030972975302908e-29 0.11285376256883983" energy=-326.396171532 Minim_Constant_Volume=T Minim_Hydrostatic_Strain=F pbc="T T T"
Si       0.00000000      -0.00000000      -0.00000000       14      -0.00000000       0.00000000      -0.00000000 
Si      -0.00000000       2.33988281       1.21875701       14       0.00000000      -0.00000000       0.00000000 
2
Lattice="4.081320836134842 7.287244428632798e-17 1.765126933896393e-29 -2.0406604180674206 3.534527525087519 1.9819695752350063e-28 1.019102321836386e-29 1.4379613618663119e-28 2.459454969357056" Properties=species:S:1:pos:R:3:Z:I:1:forces:R:3 stress="0.1377251438403397 -4.65512130013721e-17 4.231839231351538e-30 -4.65512130013721e-17 0.1377251438403396 -6.343795478147222e-30 4.231839231351538e-30 -6.343795478147222e-30 0.13772679444278296" energy=-326.294779934 Minim_Constant_Volume=T Minim_Hydrostatic_Strain=F pbc="T T T"
Si       0.00000000      -0.00000000      -0.00000000       14      -0.00000000       0.00000000      -0.00000000 
Si      -0.00000000       2.35635168       1.22972748       14       0.00000000      -0.00000000       0.00000000 
2
Lattice="4.108117303065066 4.62269977924496e-16 5.523185081088465e-29 -2.0540586515325323 3.557733946180762 2.2481254735299677e-28 3.28041856973152e-29 1.7497730882179052e-28 2.482640841431937" Properties=species:S:1:pos:R:3:Z:I:1:forces:R:3 stress="0.15709299690817077 -4.960335030681253e-17 5.012606459575018e-30 -4.960335030681253e-17 0.15709299690817077 5.304301490039708e-31 5.012606459575018e-30 5.304301490039708e-31 0.1570961571686772" energy=-326.175535274 Minim_Constant_Volume=T Minim_Hydrostatic_Strain=F pbc="T T T"
Si       0.00000000      -0.00000000      -0.00000000       14       0.00000000      -0.00000000      -0.00000000 
Si      -0.00000000       2.37182263       1.24132042       14      -0.00000000       0.00000000       0.00000000 
2
Lattice="4.133693158386804 8.058449064171172e-16 -8.178124719135921e-31 -2.0668465791934008 3.5798832866129016 1.5036051004755351e-28 -1.1846318254710574e-30 1.0286379236430102e-28 2.506501372080291" Properties=species:S:1:pos:R:3:Z:I:1:forces:R:3 stress="0.17146968997454734 -1.1289407008108384e-16 -5.0159911474915445e-30 -1.1289407008108384e-16 0.17146968997454742 -1.0276398980054523e-29 -5.0159911474915445e-30 -1.0276398980054523e-29 0.17148204183678506" energy=-326.04279383 Minim_Constant_Volume=T Minim_Hydrostatic_Strain=F pbc="T T T"
Si       0.00000000      -0.00000000      -0.00000000       14      -0.00000000       0.00000000      -0.00000000 
Si      -0.00000000       2.38658886       1.25325069       14       0.00000000      -0.00000000       0.00000000 
