2
Lattice="2.9928696042986114 -5.5076352099576e-38 0.0 -5.5076352099576e-38 2.9928696042986114 0.0 0.0 0.0 2.9928696042986114" Properties=species:S:1:pos:R:3:Z:I:1:forces:R:3 stress="6.429907716945689e-05 1.7917757249282408e-35 2.866841159885185e-35 1.7917757249282408e-35 6.429907716945689e-05 5.2757110737003373e-73 2.866841159885185e-35 5.2757110737003373e-73 6.429907716945692e-05" energy=-325.244476802 Minim_Constant_Volume=T Minim_Hydrostatic_Strain=F pbc="T T T"
Si       0.00000000       0.00000000       0.00000000       14      -0.00000000      -0.00000000      -0.00000000 
Si       1.49643480       1.49643480       1.49643480       14      -0.00000000      -0.00000000       0.00000000 
2
Lattice="2.9677182504443955 -5.461350372867932e-38 0.0 -5.461350372867932e-38 2.9677182504443955 0.0 0.0 0.0 2.9677182504443955" Properties=species:S:1:pos:R:3:Z:I:1:forces:R:3 stress="-0.038115628262521205 6.560189812297073e-35 8.746919749729431e-35 6.560189812297073e-35 -0.038115628262521205 1.6096539295628036e-72 8.746919749729431e-35 1.6096539295628036e-72 -0.03811562826252119" energy=-325.233051972 Minim_Constant_Volume=T Minim_Hydrostatic_Strain=F pbc="T T T"
Si       0.00000000       0.00000000       0.00000000       14       0.00000000       0.00000000       0.00000000 
Si       1.48385913       1.48385913       1.48385913       14       0.00000000       0.00000000       0.00000000 
2
Lattice="2.942133199289521 -5.414267423317854e-38 0.0 -5.414267423317854e-38 2.942133199289521 0.0 0.0 0.0 2.942133199289521" Properties=species:S:1:pos:R:3:Z:I:1:forces:R:3 stress="-0.09834914482463615 2.150763053825696e-34 2.373255783531802e-34 2.150763053825696e-34 -0.09834914482463616 4.367389443509853e-72 2.373255783531802e-34 4.367389443509853e-72 -0.09834914482463616" energy=-325.188423103 Minim_Constant_Volume=T Minim_Hydrostatic_Strain=F pbc="T T T"
Si       0.00000000       0.00000000       0.00000000       14       0.00000000      -0.00000000       0.00000000 
Si       1.47106660       1.47106660       1.47106660       14       0.00000000       0.00000000       0.00000000 
2
Lattice="2.9160952567645606 -5.366351039376719e-38 0.0 -5.366351039376719e-38 2.9160952567645606 0.0 0.0 0.0 2.9160952567645606" Properties=species:S:1:pos:R:3:Z:I:1:forces:R:3 stress="-0.1742915432028247 2.415826808143191e-33 2.8989921697718294e-33 2.415826808143191e-33 -0.17429154320282472 5.334877043989535e-71 2.8989921697718294e-33 5.334877043989535e-71 -0.17429154320282475" energy=-325.097687306 Minim_Constant_Volume=T Minim_Hydrostatic_Strain=F pbc="T T T"
Si       0.00000000       0.00000000       0.00000000       14      -0.00000000       0.00000000       0.00000000 
Si       1.45804763       1.45804763       1.45804763       14       0.00000000      -0.00000000       0.00000000 
2
Lattice="2.8895838324591607 -5.317563329494261e-38 0.0 -5.317563329494261e-38 2.8895838324591607 0.0 0.0 0.0 2.8895838324591607" Properties=species:S:1:pos:R:3:Z:I:1:forces:R:3 stress="-0.25593728780068326 9.91785080193572e-55 6.150899349376971e-35 9.91785080193572e-55 -0.2559372878006833 1.1319206750897875e-72 6.150899349376971e-35 1.1319206750897875e-72 -0.2559372878006833" energy=-324.953518856 Minim_Constant_Volume=T Minim_Hydrostatic_Strain=F pbc="T T T"
Si       0.00000000       0.00000000       0.00000000       14       0.00000000      -0.00000000      -0.00000000 
Si       1.44479192       1.44479192       1.44479192       14       0.00000000       0.00000000      -0.00000000 
2
Lattice="2.8625767960172377 -5.267863568231524e-38 0.0 -5.267863568231524e-38 2.8625767960172377 0.0 0.0 0.0 2.8625767960172377" Properties=species:S:1:pos:R:3:Z:I:1:forces:R:3 stress="-0.3362667723662192 -3.1337542004569903e-35 -1.5668771002284953e-34 -3.1337542004569903e-35 -0.3362667723662192 -2.8834492069082783e-72 -1.5668771002284953e-34 -2.8834492069082783e-72 -0.3362667723662192" energy=-324.754743242 Minim_Constant_Volume=T Minim_Hydrostatic_Strain=F pbc="T T T"
Si       0.00000000       0.00000000       0.00000000       14       0.00000000      -0.00000000       0.00000000 
Si       1.43128840       1.43128840       1.43128840       14       0.00000000      -0.00000000       0.00000000 
2
Lattice="3.0176051855632076 -5.553154920577798e-38 0.0 -5.553154920577798e-38 3.0176051855632076 0.0 0.0 0.0 3.0176051855632076" Properties=species:S:1:pos:R:3:Z:I:1:forces:R:3 stress="0.015217312873656793 6.316876786156669e-33 6.316876786156669e-33 6.316876786156669e-33 0.015217312873656795 1.1624647112734361e-70 6.316876786156669e-33 1.1624647112734361e-70 0.0152173128736568" energy=-325.238248193 Minim_Constant_Volume=T Minim_Hydrostatic_Strain=F pbc="T T T"
Si       0.00000000       0.00000000       0.00000000       14       0.00000000      -0.00000000      -0.00000000 
Si       1.50880259       1.50880259       1.50880259       14      -0.00000000       0.00000000       0.00000000 
2
Lattice="3.041941762231021 -5.597940362066115e-38 0.0 -5.597940362066115e-38 3.041941762231021 0.0 0.0 0.0 3.041941762231021" Properties=species:S:1:pos:R:3:Z:I:1:forces:R:3 stress="0.025105111910485717 1.9249891769079382e-41 0.0 1.9249891769079382e-41 0.025105111910485717 0.0 0.0 0.0 0.025105111910485717" energy=-325.224777522 Minim_Constant_Volume=T Minim_Hydrostatic_Strain=F pbc="T T T"
Si       0.00000000       0.00000000       0.00000000       14       0.00000000       0.00000000       0.00000000 
Si       1.52097088       1.52097088       1.52097088       14       0.00000000       0.00000000      -0.00000000 
2
Lattice="3.0658950457952154 -5.642020447534181e-38 0.0 -5.642020447534181e-38 3.0658950457952154 0.0 0.0 0.0 3.0658950457952154" Properties=species:S:1:pos:R:3:Z:I:1:forces:R:3 stress="0.03712715099551013 -2.226013066854022e-55 4.371038558703528e-34 -2.226013066854022e-55 0.037127150995510144 8.043813815149393e-72 4.371038558703528e-34 8.043813815149393e-72 0.037127150995510144" energy=-325.204116381 Minim_Constant_Volume=T Minim_Hydrostatic_Strain=F pbc="T T T"
Si       0.00000000       0.00000000       0.00000000       14       0.00000000      -0.00000000       0.00000000 
Si       1.53294752       1.53294752       1.53294752       14       0.00000000       0.00000000      -0.00000000 
2
Lattice="3.0894797806712226 -5.685422310426585e-38 0.0 -5.685422310426585e-38 3.0894797806712226 0.0 0.0 0.0 3.0894797806712226" Properties=species:S:1:pos:R:3:Z:I:1:forces:R:3 stress="0.05351463729471557 -2.1522786352882497e-34 -5.380696588220624e-35 -2.1522786352882497e-34 0.05351463729471558 -9.901839338679668e-73 -5.380696588220624e-35 -9.901839338679668e-73 0.05351463729471558" energy=-325.174025005 Minim_Constant_Volume=T Minim_Hydrostatic_Strain=F pbc="T T T"
Si       0.00000000       0.00000000       0.00000000       14      -0.00000000       0.00000000       0.00000000 
Si       1.54473989       1.54473989       1.54473989       14      -0.00000000       0.00000000      -0.00000000 
2
Lattice="3.1127098242026476 -5.728171451751941e-38 0.0 -5.728171451751941e-38 3.1127098242026476 0.0 0.0 0.0 3.1127098242026476" Properties=species:S:1:pos:R:3:Z:I:1:forces:R:3 stress="0.07490811252607914 9.921966459401528e-56 0.0 9.921966459401528e-56 0.07490811252607914 0.0 0.0 0.0 0.07490811252607914" energy=-325.131249711 Minim_Constant_Volume=T Minim_Hydrostatic_Strain=F pbc="T T T"
Si       0.00000000       0.00000000       0.00000000       14      -0.00000000       0.00000000       0.00000000 
Si       1.55635491       1.55635491       1.55635491       14       0.00000000       0.00000000      -0.00000000 
2
Lattice="3.135598218428617 -5.77029187215291e-38 0.0 -5.77029187215291e-38 3.135598218428617 0.0 0.0 0.0 3.135598218428617" Properties=species:S:1:pos:R:3:Z:I:1:forces:R:3 stress="0.09969636092689863 3.343092350680149e-33 2.5073192630101117e-33 3.343092350680149e-33 0.09969636092689854 4.614100071625309e-71 2.5073192630101117e-33 4.614100071625309e-71 0.09969636092689854" energy=-325.072843093 Minim_Constant_Volume=T Minim_Hydrostatic_Strain=F pbc="T T T"
Si       0.00000000       0.00000000       0.00000000       14       0.00000000      -0.00000000      -0.00000000 
Si       1.56779911       1.56779911       1.56779911       14      -0.00000000       0.00000000       0.00000000 
