8
Lattice="5.435724888338992 -4.307729072183048e-30 0.0 -4.307729072183048e-30 5.435724888338992 -2.8718193814553653e-30 0.0 -2.8718193814553653e-30 5.435724888338992" Properties=species:S:1:pos:R:3:Z:I:1:forces:R:3 stress="4.640766581903285e-09 1.7020240257991802e-31 8.992187215873581e-62 1.7020240257991802e-31 4.640766581903282e-09 -1.966467523624613e-54 8.992187215873581e-62 -1.966467523624613e-54 4.640766581903285e-09" energy=-1305.32628416 Minim_Constant_Volume=T Minim_Hydrostatic_Strain=F pbc="T T T"
Si      -0.00000000      -0.00000000       0.00000000       14       0.00000000      -0.00000000       0.00000000 
Si       1.35893122       1.35893122       1.35893122       14      -0.00000000       0.00000000       0.00000000 
Si       2.71786244       2.71786244      -0.00000000       14       0.00000000       0.00000000       0.00000000 
Si       4.07679367       4.07679367       1.35893122       14       0.00000000      -0.00000000      -0.00000000 
Si       2.71786244      -0.00000000       2.71786244       14      -0.00000000      -0.00000000       0.00000000 
Si       4.07679367       1.35893122       4.07679367       14      -0.00000000       0.00000000      -0.00000000 
Si      -0.00000000       2.71786244       2.71786244       14      -0.00000000      -0.00000000       0.00000000 
Si       1.35893122       4.07679367       4.07679367       14       0.00000000      -0.00000000      -0.00000000 
8
Lattice="5.390044368237342 -4.271527956689425e-30 0.0 -4.271527956689425e-30 5.390044368237342 -2.8476853044596165e-30 0.0 -2.8476853044596165e-30 5.390044368237342" Properties=species:S:1:pos:R:3:Z:I:1:forces:R:3 stress="-0.0184616003932836 2.317044976293864e-30 4.896594148757831e-60 2.317044976293864e-30 -0.018461600393283595 -4.634089952587728e-30 4.896594148757831e-60 -4.634089952587728e-30 -0.0184616003932836" energy=-1305.28956694 Minim_Constant_Volume=T Minim_Hydrostatic_Strain=F pbc="T T T"
Si      -0.00000000      -0.00000000       0.00000000       14       0.00000000       0.00000000      -0.00000000 
Si       1.34751109       1.34751109       1.34751109       14      -0.00000000       0.00000000      -0.00000000 
Si       2.69502218       2.69502218      -0.00000000       14       0.00000000      -0.00000000      -0.00000000 
Si       4.04253328       4.04253328       1.34751109       14      -0.00000000       0.00000000       0.00000000 
Si       2.69502218      -0.00000000       2.69502218       14       0.00000000       0.00000000      -0.00000000 
Si       4.04253328       1.34751109       4.04253328       14       0.00000000       0.00000000      -0.00000000 
Si      -0.00000000       2.69502218       2.69502218       14       0.00000000      -0.00000000      -0.00000000 
Si       1.34751109       4.04253328       4.04253328       14      -0.00000000       0.00000000       0.00000000 
8
Lattice="5.343576156213594 -4.2347026073608594e-30 0.0 -4.2347026073608594e-30 5.343576156213594 -2.823135071573906e-30 0.0 -2.823135071573906e-30 5.343576156213594" Properties=species:S:1:pos:R:3:Z:I:1:forces:R:3 stress="-0.038133694000408405 6.692367568023018e-48 1.8682975771907229e-60 6.692367568023018e-48 -0.03813369400040841 -2.357518652864692e-30 1.8682975771907229e-60 -2.357518652864692e-30 -0.0381336940004084" energy=-1305.17641521 Minim_Constant_Volume=T Minim_Hydrostatic_Strain=F pbc="T T T"
Si      -0.00000000      -0.00000000       0.00000000       14      -0.00000000       0.00000000      -0.00000000 
Si       1.33589404       1.33589404       1.33589404       14      -0.00000000       0.00000000       0.00000000 
Si       2.67178808       2.67178808      -0.00000000       14      -0.00000000       0.00000000      -0.00000000 
Si       4.00768212       4.00768212       1.33589404       14      -0.00000000       0.00000000      -0.00000000 
Si       2.67178808      -0.00000000       2.67178808       14       0.00000000       0.00000000      -0.00000000 
Si       4.00768212       1.33589404       4.00768212       14      -0.00000000       0.00000000      -0.00000000 
Si      -0.00000000       2.67178808       2.67178808       14      -0.00000000      -0.00000000      -0.00000000 
Si       1.33589404       4.00768212       4.00768212       14       0.00000000       0.00000000      -0.00000000 
8
Lattice="5.296285391517135 -4.1972253975841604e-30 0.0 -4.1972253975841604e-30 5.296285391517135 -2.7981502650561068e-30 0.0 -2.7981502650561068e-30 5.296285391517135" Properties=species:S:1:pos:R:3:Z:I:1:forces:R:3 stress="-0.05992870885262069 -1.2433782485776801e-48 -4.60835548801655e-78 -1.2433782485776801e-48 -0.05992870885262069 -1.760367432866116e-48 -4.60835548801655e-78 -1.760367432866116e-48 -0.05992870885262069" energy=-1304.98070961 Minim_Constant_Volume=T Minim_Hydrostatic_Strain=F pbc="T T T"
Si      -0.00000000      -0.00000000       0.00000000       14       0.00000000      -0.00000000       0.00000000 
Si       1.32407135       1.32407135       1.32407135       14       0.00000000      -0.00000000       0.00000000 
Si       2.64814270       2.64814270      -0.00000000       14      -0.00000000       0.00000000       0.00000000 
Si       3.97221404       3.97221404       1.32407135       14      -0.00000000       0.00000000       0.00000000 
Si       2.64814270      -0.00000000       2.64814270       14       0.00000000      -0.00000000       0.00000000 
Si       3.97221404       1.32407135       3.97221404       14      -0.00000000      -0.00000000      -0.00000000 
Si      -0.00000000       2.64814270       2.64814270       14       0.00000000       0.00000000       0.00000000 
Si       1.32407135       3.97221404       3.97221404       14       0.00000000      -0.00000000       0.00000000 
8
Lattice="5.2481346773279185 -4.159066690949792e-30 0.0 -4.159066690949792e-30 5.2481346773279185 -2.772711127299861e-30 0.0 -2.772711127299861e-30 5.2481346773279185" Properties=species:S:1:pos:R:3:Z:I:1:forces:R:3 stress="-0.08467490124810462 2.4440450201233345e-30 1.2912456024028887e-60 2.4440450201233345e-30 -0.08467490124810463 -1.9809706840821037e-47 1.2912456024028887e-60 -1.9809706840821037e-47 -0.08467490124810459" energy=-1304.69132583 Minim_Constant_Volume=T Minim_Hydrostatic_Strain=F pbc="T T T"
Si      -0.00000000      -0.00000000       0.00000000       14      -0.00000000       0.00000000       0.00000000 
Si       1.31203367       1.31203367       1.31203367       14      -0.00000000      -0.00000000      -0.00000000 
Si       2.62406734       2.62406734      -0.00000000       14      -0.00000000      -0.00000000      -0.00000000 
Si       3.93610101       3.93610101       1.31203367       14      -0.00000000      -0.00000000       0.00000000 
Si       2.62406734      -0.00000000       2.62406734       14      -0.00000000      -0.00000000       0.00000000 
Si       3.93610101       1.31203367       3.93610101       14       0.00000000      -0.00000000      -0.00000000 
Si      -0.00000000       2.62406734       2.62406734       14       0.00000000       0.00000000      -0.00000000 
Si       1.31203367       3.93610101       3.93610101       14       0.00000000       0.00000000      -0.00000000 
8
Lattice="5.199083819937811 -4.1201946345570625e-30 0.0 -4.1201946345570625e-30 5.199083819937811 -2.7467964230380415e-30 0.0 -2.7467964230380415e-30 5.199083819937811" Properties=species:S:1:pos:R:3:Z:I:1:forces:R:3 stress="-0.11256441919078013 -3.112974181854104e-31 3.2893127496563066e-61 -3.112974181854104e-31 -0.11256441919078013 -6.225948363708208e-31 3.2893127496563066e-61 -6.225948363708208e-31 -0.11256441919078013" energy=-1304.29651964 Minim_Constant_Volume=T Minim_Hydrostatic_Strain=F pbc="T T T"
Si      -0.00000000      -0.00000000       0.00000000       14       0.00000000       0.00000000       0.00000000 
Si       1.29977095       1.29977095       1.29977095       14      -0.00000000      -0.00000000       0.00000000 
Si       2.59954191       2.59954191      -0.00000000       14      -0.00000000      -0.00000000       0.00000000 
Si       3.89931286       3.89931286       1.29977095       14       0.00000000      -0.00000000       0.00000000 
Si       2.59954191      -0.00000000       2.59954191       14       0.00000000       0.00000000      -0.00000000 
Si       3.89931286       1.29977095       3.89931286       14       0.00000000       0.00000000      -0.00000000 
Si      -0.00000000       2.59954191       2.59954191       14      -0.00000000      -0.00000000       0.00000000 
Si       1.29977095       3.89931286       3.89931286       14      -0.00000000      -0.00000000       0.00000000 
8
Lattice="5.480650271828597 -4.3433317534284344e-30 0.0 -4.3433317534284344e-30 5.480650271828597 -2.8955545022856227e-30 0.0 -2.8955545022856227e-30 5.480650271828597" Properties=species:S:1:pos:R:3:Z:I:1:forces:R:3 stress="0.017547639451631618 2.8013345471873345e-31 -7.400049682252575e-62 2.8013345471873345e-31 0.01754763945163162 2.8013345471873345e-31 -7.400049682252575e-62 2.8013345471873345e-31 0.017547639451631614" energy=-1305.29078458 Minim_Constant_Volume=T Minim_Hydrostatic_Strain=F pbc="T T T"
Si      -0.00000000      -0.00000000       0.00000000       14       0.00000000       0.00000000       0.00000000 
Si       1.37016257       1.37016257       1.37016257       14       0.00000000       0.00000000      -0.00000000 
Si       2.74032514       2.74032514      -0.00000000       14      -0.00000000       0.00000000      -0.00000000 
Si       4.11048770       4.11048770       1.37016257       14      -0.00000000      -0.00000000       0.00000000 
Si       2.74032514      -0.00000000       2.74032514       14       0.00000000       0.00000000      -0.00000000 
Si       4.11048770       1.37016257       4.11048770       14      -0.00000000       0.00000000       0.00000000 
Si      -0.00000000       2.74032514       2.74032514       14       0.00000000      -0.00000000      -0.00000000 
Si       1.37016257       4.11048770       4.11048770       14      -0.00000000       0.00000000      -0.00000000 
8
Lattice="5.524850973155578 -4.37836013511228e-30 0.0 -4.37836013511228e-30 5.524850973155578 -2.9189067567415194e-30 0.0 -2.9189067567415194e-30 5.524850973155578" Properties=species:S:1:pos:R:3:Z:I:1:forces:R:3 stress="0.0343539336177485 -5.51338114998582e-31 1.4564234917266222e-61 -5.51338114998582e-31 0.034353933617748494 -5.51338114998582e-31 1.4564234917266222e-61 -5.51338114998582e-31 0.03435393361774851" energy=-1305.18635804 Minim_Constant_Volume=T Minim_Hydrostatic_Strain=F pbc="T T T"
Si      -0.00000000      -0.00000000       0.00000000       14       0.00000000       0.00000000       0.00000000 
Si       1.38121274       1.38121274       1.38121274       14      -0.00000000       0.00000000       0.00000000 
Si       2.76242549       2.76242549      -0.00000000       14      -0.00000000       0.00000000      -0.00000000 
Si       4.14363823       4.14363823       1.38121274       14       0.00000000       0.00000000      -0.00000000 
Si       2.76242549      -0.00000000       2.76242549       14       0.00000000      -0.00000000      -0.00000000 
Si       4.14363823       1.38121274       4.14363823       14      -0.00000000       0.00000000       0.00000000 
Si      -0.00000000       2.76242549       2.76242549       14      -0.00000000       0.00000000       0.00000000 
Si       1.38121274       4.14363823       4.14363823       14      -0.00000000       0.00000000      -0.00000000 
8
Lattice="5.568355527928136 -4.412836831268879e-30 0.0 -4.412836831268879e-30 5.568355527928136 -2.941891220845919e-30 0.0 -2.941891220845919e-30 5.568355527928136" Properties=species:S:1:pos:R:3:Z:I:1:forces:R:3 stress="0.05048844238296808 -1.0352263618060789e-36 2.734670343942874e-67 -1.0352263618060789e-36 0.05048844238296808 -1.0352263618037636e-36 2.734670343942874e-67 -1.0352263618037636e-36 0.05048844238296808" energy=-1305.01572146 Minim_Constant_Volume=T Minim_Hydrostatic_Strain=F pbc="T T T"
Si      -0.00000000      -0.00000000       0.00000000       14       0.00000000      -0.00000000      -0.00000000 
Si       1.39208888       1.39208888       1.39208888       14       0.00000000      -0.00000000      -0.00000000 
Si       2.78417776       2.78417776      -0.00000000       14       0.00000000       0.00000000      -0.00000000 
Si       4.17626665       4.17626665       1.39208888       14       0.00000000      -0.00000000      -0.00000000 
Si       2.78417776      -0.00000000       2.78417776       14      -0.00000000      -0.00000000       0.00000000 
Si       4.17626665       1.39208888       4.17626665       14       0.00000000      -0.00000000      -0.00000000 
Si      -0.00000000       2.78417776       2.78417776       14      -0.00000000       0.00000000      -0.00000000 
Si       1.39208888       4.17626665       4.17626665       14       0.00000000      -0.00000000      -0.00000000 
8
Lattice="5.611190715323624 -4.446783063987867e-30 0.0 -4.446783063987867e-30 5.611190715323624 -2.9645220426585776e-30 0.0 -2.9645220426585776e-30 5.611190715323624" Properties=species:S:1:pos:R:3:Z:I:1:forces:R:3 stress="0.0657442504963506 -2.6725085134434995e-31 -3.529870396161993e-62 -2.6725085134434995e-31 0.06574425049635058 -1.3362542567217497e-31 -3.529870396161993e-62 -1.3362542567217497e-31 0.0657442504963506" energy=-1304.78208436 Minim_Constant_Volume=T Minim_Hydrostatic_Strain=F pbc="T T T"
Si      -0.00000000      -0.00000000       0.00000000       14       0.00000000       0.00000000      -0.00000000 
Si       1.40279768       1.40279768       1.40279768       14      -0.00000000       0.00000000      -0.00000000 
Si       2.80559536       2.80559536      -0.00000000       14       0.00000000      -0.00000000       0.00000000 
Si       4.20839304       4.20839304       1.40279768       14       0.00000000       0.00000000      -0.00000000 
Si       2.80559536      -0.00000000       2.80559536       14       0.00000000       0.00000000       0.00000000 
Si       4.20839304       1.40279768       4.20839304       14       0.00000000      -0.00000000      -0.00000000 
Si      -0.00000000       2.80559536       2.80559536       14      -0.00000000      -0.00000000      -0.00000000 
Si       1.40279768       4.20839304       4.20839304       14       0.00000000       0.00000000      -0.00000000 
8
Lattice="5.653381703397278 -4.480218778569174e-30 0.0 -4.480218778569174e-30 5.653381703397278 -2.9868125190461154e-30 0.0 -2.9868125190461154e-30 5.653381703397278" Properties=species:S:1:pos:R:3:Z:I:1:forces:R:3 stress="0.08015539537586111 4.780226883372664e-47 6.259284718127781e-61 4.780226883372664e-47 0.08015539537586107 -7.898303063030078e-31 6.259284718127781e-61 -7.898303063030078e-31 0.08015539537586111" energy=-1304.48889139 Minim_Constant_Volume=T Minim_Hydrostatic_Strain=F pbc="T T T"
Si      -0.00000000      -0.00000000       0.00000000       14      -0.00000000       0.00000000       0.00000000 
Si       1.41334543       1.41334543       1.41334543       14       0.00000000      -0.00000000       0.00000000 
Si       2.82669085       2.82669085      -0.00000000       14       0.00000000      -0.00000000      -0.00000000 
Si       4.24003628       4.24003628       1.41334543       14       0.00000000       0.00000000      -0.00000000 
Si       2.82669085      -0.00000000       2.82669085       14       0.00000000       0.00000000       0.00000000 
Si       4.24003628       1.41334543       4.24003628       14       0.00000000      -0.00000000       0.00000000 
Si      -0.00000000       2.82669085       2.82669085       14      -0.00000000      -0.00000000      -0.00000000 
Si       1.41334543       4.24003628       4.24003628       14       0.00000000       0.00000000      -0.00000000 
8
Lattice="5.694952179427881 -4.5131627468199726e-30 0.0 -4.5131627468199726e-30 5.694952179427881 -3.008775164546648e-30 0.0 -3.008775164546648e-30 5.694952179427881" Properties=species:S:1:pos:R:3:Z:I:1:forces:R:3 stress="0.09371966394475129 -7.844591097001588e-48 -5.444586656692543e-78 -7.844591097001588e-48 0.09371966394475129 -8.792222273321311e-48 -5.444586656692543e-78 -8.792222273321311e-48 0.09371966394475129" energy=-1304.1395293 Minim_Constant_Volume=T Minim_Hydrostatic_Strain=F pbc="T T T"
Si      -0.00000000      -0.00000000       0.00000000       14      -0.00000000      -0.00000000       0.00000000 
Si       1.42373804       1.42373804       1.42373804       14       0.00000000      -0.00000000      -0.00000000 
Si       2.84747609       2.84747609      -0.00000000       14       0.00000000       0.00000000      -0.00000000 
Si       4.27121413       4.27121413       1.42373804       14      -0.00000000      -0.00000000       0.00000000 
Si       2.84747609      -0.00000000       2.84747609       14      -0.00000000      -0.00000000      -0.00000000 
Si       4.27121413       1.42373804       4.27121413       14       0.00000000       0.00000000       0.00000000 
Si      -0.00000000       2.84747609       2.84747609       14       0.00000000       0.00000000      -0.00000000 
Si       1.42373804       4.27121413       4.27121413       14      -0.00000000      -0.00000000       0.00000000 
