1
Lattice="2.658028887037478 1.5226183857450223e-17 2.3148196045743153e-34 1.329014443518739 2.3019205401673335 9.838162299321105e-35 2.3634066212715184e-34 3.8292858462932664e-36 2.47579799282227" Properties=species:S:1:pos:R:3:Z:I:1:forces:R:3 stress="5.442682515707477e-07 2.6371853678578393e-22 -5.853687006596249e-35 2.6371853678578393e-22 5.442682515707481e-07 7.885675929656942e-35 -5.853687006596249e-35 7.885675929656942e-35 3.325530024665021e-05" energy=-162.835556752 Minim_Constant_Volume=T Minim_Hydrostatic_Strain=F pbc="T T T"
Si       0.00000000       0.00000000       0.00000000       14       0.00000000       0.00000000       0.00000000 
1
Lattice="2.633952231345327 2.9608108033806136e-17 2.2292982954392356e-34 1.3169761156726636 2.2810695446997595 9.830967924246767e-35 2.2776384805075822e-34 8.183813422264724e-36 2.4582319513205158" Properties=species:S:1:pos:R:3:Z:I:1:forces:R:3 stress="-0.017144494304687456 -2.2056093049128716e-18 3.896020773862057e-36 -2.2056093049128716e-18 -0.01714449430468749 -4.831136226745628e-35 3.896020773862057e-36 -4.831136226745628e-35 -0.017135320507525857" energy=-162.832393276 Minim_Constant_Volume=T Minim_Hydrostatic_Strain=F pbc="T T T"
Si       0.00000000       0.00000000       0.00000000       14       0.00000000       0.00000000       0.00000000 
1
Lattice="2.609441379987127 4.693767393322152e-17 2.0842377490537637e-34 1.3047206899935635 2.259842524755174 2.4832736134960244e-34 2.1361457528920424e-34 1.7749022123099083e-34 2.4404082968085024" Properties=species:S:1:pos:R:3:Z:I:1:forces:R:3 stress="-0.03708142779931187 5.594703553794697e-18 1.6859898162230398e-35 5.594703553794697e-18 -0.03708142779931191 -1.1210226297429209e-35 1.6859898162230398e-35 -1.1210226297429209e-35 -0.037072038140126315" energy=-162.822220023 Minim_Constant_Volume=T Minim_Hydrostatic_Strain=F pbc="T T T"
Si       0.00000000       0.00000000       0.00000000       14       0.00000000       0.00000000       0.00000000 
1
Lattice="2.58454714696229 3.407296879878181e-17 1.8302587119918948e-34 1.292273573481145 2.2382834865479357 2.4998766294064415e-34 1.8927977156040069e-34 1.9246586926084573e-34 2.422182055014386" Properties=species:S:1:pos:R:3:Z:I:1:forces:R:3 stress="-0.060038014161700265 -1.5875295507539318e-17 2.1320691897338797e-35 -1.5875295507539318e-17 -0.06003801416170038 -3.029028353918599e-36 2.1320691897338797e-35 -3.029028353918599e-36 -0.060029563095096126" energy=-162.803926452 Minim_Constant_Volume=T Minim_Hydrostatic_Strain=F pbc="T T T"
Si       0.00000000       0.00000000       0.00000000       14       0.00000000       0.00000000       0.00000000 
1
Lattice="2.5590589223645654 9.156978908444687e-17 7.955451473123685e-35 1.2795294611822827 2.2162100365489428 2.0036510921931286e-34 9.173691068541188e-35 1.941492121185941e-34 2.4038964139129986" Properties=species:S:1:pos:R:3:Z:I:1:forces:R:3 stress="-0.08592509233060867 -3.350230629695476e-17 1.4424819614985298e-35 -3.350230629695476e-17 -0.08592509233060874 -1.1299424548974965e-35 1.4424819614985298e-35 -1.1299424548974965e-35 -0.08591712550093301" energy=-162.776377007 Minim_Constant_Volume=T Minim_Hydrostatic_Strain=F pbc="T T T"
Si       0.00000000       0.00000000       0.00000000       14       0.00000000       0.00000000       0.00000000 
1
Lattice="2.5326854070033606 6.825554820137935e-17 5.550045306591531e-35 1.2663427035016803 2.19336990225904 -9.859528844726674e-35 6.875077745659479e-35 -1.1779145302199824e-34 2.3860466655311234" Properties=species:S:1:pos:R:3:Z:I:1:forces:R:3 stress="-0.11481021930943099 1.0297488672781415e-17 1.7124782315352401e-34 1.0297488672781415e-17 -0.11481021930943114 1.971175527760028e-34 1.7124782315352401e-34 1.971175527760028e-34 -0.11480044712139781" energy=-162.738499764 Minim_Constant_Volume=T Minim_Hydrostatic_Strain=F pbc="T T T"
Si       0.00000000       0.00000000       0.00000000       14       0.00000000       0.00000000       0.00000000 
1
Lattice="2.6813338736514583 3.567994700605695e-18 2.4011670600740533e-34 1.3406669368257291 2.3221032506098966 9.85324521693048e-35 2.4489048115541956e-34 -4.8287729135365305e-37 2.4937697419126503" Properties=species:S:1:pos:R:3:Z:I:1:forces:R:3 stress="0.014880314398290875 -7.002630408674613e-18 -3.5227058711438496e-36 -7.002630408674613e-18 0.014880314398290876 2.6828225585512613e-34 -3.5227058711438496e-36 2.6828225585512613e-34 0.01500338444609115" energy=-162.832669833 Minim_Constant_Volume=T Minim_Hydrostatic_Strain=F pbc="T T T"
Si       0.00000000       0.00000000       0.00000000       14       0.00000000       0.00000000       0.00000000 
1
Lattice="2.7043127387610544 -9.958316813864232e-18 2.5512049788082897e-34 1.3521563693805272 2.342003531544943 9.844623523632763e-35 2.593677987064223e-34 -8.47299294222509e-36 2.5113644592571007" Properties=species:S:1:pos:R:3:Z:I:1:forces:R:3 stress="0.028499562488640887 1.1072248051466099e-17 -6.972436355224141e-36 1.1072248051466099e-17 0.02849956248864092 4.304259260761394e-36 -6.972436355224141e-36 4.304259260761394e-36 0.02856024498123434" energy=-162.824423332 Minim_Constant_Volume=T Minim_Hydrostatic_Strain=F pbc="T T T"
Si       0.00000000       0.00000000       0.00000000       14       0.00000000       0.00000000       0.00000000 
1
Lattice="2.726308042176459 -6.994326588361871e-19 2.7686448884394013e-34 1.3631540210882296 2.3610520230666303 9.838204492880308e-35 2.7992694503101447e-34 -2.0039259211908006e-35 2.529840427559942" Properties=species:S:1:pos:R:3:Z:I:1:forces:R:3 stress="0.04120566957564271 9.820317112015733e-19 -1.0650567771564749e-35 9.820317112015733e-19 0.0412056695756427 6.502619095063213e-36 -1.0650567771564749e-35 6.502619095063213e-36 0.04130210062018224" energy=-162.81118923 Minim_Constant_Volume=T Minim_Hydrostatic_Strain=F pbc="T T T"
Si       0.00000000       0.00000000       0.00000000       14       0.00000000       0.00000000       0.00000000 
1
Lattice="2.7472806478806864 -7.0481316798757415e-19 2.789943177804351e-34 1.3736403239403432 2.3792148323900455 9.913886617011086e-35 2.820803324521357e-34 -2.0193414749563478e-35 2.549301671469663" Properties=species:S:1:pos:R:3:Z:I:1:forces:R:3 stress="0.053287618014423756 -3.710146792771773e-17 -1.373721304236167e-35 -3.710146792771773e-17 0.05328761801442376 8.372535137378401e-36 -1.373721304236167e-35 8.372535137378401e-36 0.053166751703800384" energy=-162.793277505 Minim_Constant_Volume=T Minim_Hydrostatic_Strain=F pbc="T T T"
Si       0.00000000       0.00000000       0.00000000       14       0.00000000       0.00000000       0.00000000 
1
Lattice="2.7670615136326218 -8.455884298448193e-17 -6.111368597540522e-35 1.3835307568163109 2.3963455646400713 8.725061986497299e-34 -3.359896990131305e-35 9.908791675646587e-34 2.570096105817944" Properties=species:S:1:pos:R:3:Z:I:1:forces:R:3 stress="0.0645295531376754 1.8732095165132842e-17 -2.1502065446973538e-35 1.8732095165132842e-17 0.06452955313767537 1.9423591411041397e-35 -2.1502065446973538e-35 1.9423591411041397e-35 0.0645302003716186" energy=-162.77095085 Minim_Constant_Volume=T Minim_Hydrostatic_Strain=F pbc="T T T"
Si       0.00000000       0.00000000       0.00000000       14       0.00000000       0.00000000       0.00000000 
1
Lattice="2.786445505636975 3.1722334988190086e-17 -2.2761658665150086e-35 1.3932227528184875 2.4131325941425965 7.91303114351415e-34 2.2446193813445314e-36 8.823671374543183e-34 2.5907838211460064" Properties=species:S:1:pos:R:3:Z:I:1:forces:R:3 stress="0.07478637670567886 2.9728623169469035e-18 -2.4355665833614997e-35 2.9728623169469035e-18 0.07478637670567882 -3.892336203811907e-34 -2.4355665833614997e-35 -3.892336203811907e-34 0.07488994161808588" energy=-162.744526209 Minim_Constant_Volume=T Minim_Hydrostatic_Strain=F pbc="T T T"
Si       0.00000000       0.00000000       0.00000000       14       0.00000000       0.00000000       0.00000000 
