4
Lattice="4.129330980732289 4.553140708236223e-32 0.0 4.553140708236223e-32 4.1293309807322895 -5.190580407389295e-31 0.0 -5.190580407389295e-31 4.129330980732289" Properties=species:S:1:pos:R:3:Z:I:1:forces:R:3 stress="-3.6640121803287706e-05 2.698720067811691e-32 2.409571489117582e-34 2.698720067811691e-32 -3.664012180328768e-05 -1.3493600339058459e-32 2.409571489117582e-34 -1.3493600339058459e-32 -3.664012180328771e-05" energy=-650.765032847 Minim_Constant_Volume=T Minim_Hydrostatic_Strain=F pbc="T T T"
Si       0.00000000       0.00000000       0.00000000       14       0.00000000       0.00000000       0.00000000 
Si       2.06466549       2.06466549      -0.00000000       14      -0.00000000      -0.00000000      -0.00000000 
Si       2.06466549      -0.00000000       2.06466549       14       0.00000000       0.00000000      -0.00000000 
Si       0.00000000       2.06466549       2.06466549       14      -0.00000000      -0.00000000       0.00000000 
4
Lattice="4.094629079744553 4.5148772125809485e-32 0.0 4.5148772125809485e-32 4.0946290797445535 -5.146960022342282e-31 0.0 -5.146960022342282e-31 4.094629079744553" Properties=species:S:1:pos:R:3:Z:I:1:forces:R:3 stress="-0.08038247811766693 1.5683754875733033e-32 2.13898251657431e-63 1.5683754875733033e-32 -0.08038247811766686 1.5193637535866378e-32 2.13898251657431e-63 1.5193637535866378e-32 -0.0803824781176669" energy=-650.691912011 Minim_Constant_Volume=T Minim_Hydrostatic_Strain=F pbc="T T T"
Si       0.00000000       0.00000000       0.00000000       14       0.00000000       0.00000000      -0.00000000 
Si       2.04731454       2.04731454      -0.00000000       14       0.00000000       0.00000000       0.00000000 
Si       2.04731454      -0.00000000       2.04731454       14      -0.00000000       0.00000000      -0.00000000 
Si       0.00000000       2.04731454       2.04731454       14      -0.00000000       0.00000000       0.00000000 
4
Lattice="4.0593287966230625 4.4759539204441144e-32 0.0 4.4759539204441144e-32 4.059328796623063 -5.1025874693062916e-31 0.0 -5.1025874693062916e-31 4.0593287966230625" Properties=species:S:1:pos:R:3:Z:I:1:forces:R:3 stress="-0.13982355898861346 -9.973572223671186e-34 -9.973572223671198e-34 -9.973572223671186e-34 -0.1398235589886133 7.600759713574597e-48 -9.973572223671198e-34 7.600759713574597e-48 -0.13982355898861346" energy=-650.494315928 Minim_Constant_Volume=T Minim_Hydrostatic_Strain=F pbc="T T T"
Si       0.00000000       0.00000000       0.00000000       14       0.00000000       0.00000000       0.00000000 
Si       2.02966440       2.02966440      -0.00000000       14      -0.00000000      -0.00000000       0.00000000 
Si       2.02966440      -0.00000000       2.02966440       14       0.00000000       0.00000000       0.00000000 
Si       0.00000000       2.02966440       2.02966440       14      -0.00000000      -0.00000000      -0.00000000 
4
Lattice="4.023403648869075 4.4363416313223844e-32 0.0 4.4363416313223844e-32 4.023403648869076 -5.057429459707519e-31 0.0 -5.057429459707519e-31 4.023403648869075" Properties=species:S:1:pos:R:3:Z:I:1:forces:R:3 stress="-0.1690027274422861 -3.0457428969212032e-33 -3.828507203823303e-64 -3.0457428969212032e-33 -0.16900272744228603 -6.292704129683312e-48 -3.828507203823303e-64 -6.292704129683312e-48 -0.1690027274422861" energy=-650.217456502 Minim_Constant_Volume=T Minim_Hydrostatic_Strain=F pbc="T T T"
Si       0.00000000       0.00000000       0.00000000       14       0.00000000      -0.00000000      -0.00000000 
Si       2.01170182       2.01170182      -0.00000000       14      -0.00000000       0.00000000       0.00000000 
Si       2.01170182      -0.00000000       2.01170182       14      -0.00000000      -0.00000000      -0.00000000 
Si       0.00000000       2.01170182       2.01170182       14      -0.00000000       0.00000000       0.00000000 
4
Lattice="3.9868252274201788 4.3960090204178325e-32 0.0 4.3960090204178325e-32 3.9868252274201796 -5.011450283276329e-31 0.0 -5.011450283276329e-31 3.9868252274201788" Properties=species:S:1:pos:R:3:Z:I:1:forces:R:3 stress="-0.16431339024255787 1.9386797451595034e-34 2.584906326879339e-34 1.9386797451595034e-34 -0.1643133902425578 1.61556645429958e-33 2.584906326879339e-34 1.61556645429958e-33 -0.16431339024255787" energy=-649.918663602 Minim_Constant_Volume=T Minim_Hydrostatic_Strain=F pbc="T T T"
Si       0.00000000       0.00000000       0.00000000       14      -0.00000000       0.00000000       0.00000000 
Si       1.99341261       1.99341261      -0.00000000       14       0.00000000      -0.00000000      -0.00000000 
Si       1.99341261      -0.00000000       1.99341261       14      -0.00000000       0.00000000       0.00000000 
Si       0.00000000       1.99341261       1.99341261       14       0.00000000      -0.00000000       0.00000000 
4
Lattice="3.9495629985154435 4.354922420167716e-32 0.0 4.354922420167716e-32 3.9495629985154443 -4.964611558991197e-31 0.0 -4.964611558991197e-31 3.9495629985154435" Properties=species:S:1:pos:R:3:Z:I:1:forces:R:3 stress="-0.12078252687107836 -1.116778309707762e-30 -1.3443145752536006e-61 -1.116778309707762e-30 -0.1207825268710784 5.394249948777115e-31 -1.3443145752536006e-61 5.394249948777115e-31 -0.12078252687107836" energy=-649.662102005 Minim_Constant_Volume=T Minim_Hydrostatic_Strain=F pbc="T T T"
Si       0.00000000       0.00000000       0.00000000       14      -0.00000000       0.00000000       0.00000000 
Si       1.97478150       1.97478150      -0.00000000       14      -0.00000000      -0.00000000       0.00000000 
Si       1.97478150      -0.00000000       1.97478150       14       0.00000000       0.00000000       0.00000000 
Si       0.00000000       1.97478150       1.97478150       14       0.00000000      -0.00000000       0.00000000 
4
Lattice="4.1634592307220695 4.5907716768009605e-32 0.0 4.5907716768009605e-32 4.16345923072207 -5.233479711553095e-31 0.0 -5.233479711553095e-31 4.1634592307220695" Properties=species:S:1:pos:R:3:Z:I:1:forces:R:3 stress="0.09144614799822545 -1.3273290492314368e-32 -1.689364241197382e-63 -1.3273290492314368e-32 0.09144614799822529 -1.8961843560449187e-33 -1.689364241197382e-63 -1.8961843560449187e-33 0.09144614799822545" energy=-650.685524025 Minim_Constant_Volume=T Minim_Hydrostatic_Strain=F pbc="T T T"
Si       0.00000000       0.00000000       0.00000000       14       0.00000000       0.00000000      -0.00000000 
Si       2.08172962       2.08172962      -0.00000000       14       0.00000000       0.00000000      -0.00000000 
Si       2.08172962      -0.00000000       2.08172962       14      -0.00000000      -0.00000000       0.00000000 
Si       0.00000000       2.08172962       2.08172962       14      -0.00000000       0.00000000      -0.00000000 
4
Lattice="4.197036964899003 4.6277956279166985e-32 0.0 4.6277956279166985e-32 4.197036964899004 -5.275687015825036e-31 0.0 -5.275687015825036e-31 4.197036964899003" Properties=species:S:1:pos:R:3:Z:I:1:forces:R:3 stress="0.18514007803958854 -8.163598943413502e-33 -1.399474104585173e-33 -8.163598943413502e-33 0.1851400780395888 4.225548457315343e-47 -1.399474104585173e-33 4.225548457315343e-47 0.18514007803958857" energy=-650.441827554 Minim_Constant_Volume=T Minim_Hydrostatic_Strain=F pbc="T T T"
Si       0.00000000       0.00000000       0.00000000       14       0.00000000       0.00000000      -0.00000000 
Si       2.09851848       2.09851848      -0.00000000       14      -0.00000000       0.00000000       0.00000000 
Si       2.09851848      -0.00000000       2.09851848       14      -0.00000000       0.00000000      -0.00000000 
Si       0.00000000       2.09851848       2.09851848       14      -0.00000000       0.00000000       0.00000000 
4
Lattice="4.230085860771323 4.6642364639409e-32 0.0 4.6642364639409e-32 4.230085860771324 -5.317229568892627e-31 0.0 -5.317229568892627e-31 4.230085860771323" Properties=species:S:1:pos:R:3:Z:I:1:forces:R:3 stress="0.2703828727818711 -6.429228644913144e-33 -8.836355879429332e-64 -6.429228644913144e-33 0.270382872781871 -6.845406392016897e-33 -8.836355879429332e-64 -6.845406392016897e-33 0.2703828727818711" energy=-650.037559401 Minim_Constant_Volume=T Minim_Hydrostatic_Strain=F pbc="T T T"
Si       0.00000000       0.00000000       0.00000000       14      -0.00000000      -0.00000000       0.00000000 
Si       2.11504293       2.11504293      -0.00000000       14       0.00000000       0.00000000       0.00000000 
Si       2.11504293      -0.00000000       2.11504293       14       0.00000000      -0.00000000       0.00000000 
Si       0.00000000       2.11504293       2.11504293       14       0.00000000       0.00000000       0.00000000 
4
Lattice="4.262626261547881 4.700116615987174e-32 0.0 4.700116615987174e-32 4.262626261547882 -5.358132942225379e-31 0.0 -5.358132942225379e-31 4.262626261547881" Properties=species:S:1:pos:R:3:Z:I:1:forces:R:3 stress="0.33478137731700813 3.307048522652725e-33 -6.783689277236366e-34 3.307048522652725e-33 0.33478137731700774 -4.522459518157795e-34 -6.783689277236366e-34 -4.522459518157795e-34 0.3347813773170081" energy=-649.502776496 Minim_Constant_Volume=T Minim_Hydrostatic_Strain=F pbc="T T T"
Si       0.00000000       0.00000000       0.00000000       14      -0.00000000       0.00000000      -0.00000000 
Si       2.13131313       2.13131313      -0.00000000       14       0.00000000      -0.00000000      -0.00000000 
Si       2.13131313      -0.00000000       2.13131313       14       0.00000000       0.00000000      -0.00000000 
Si       0.00000000       2.13131313       2.13131313       14       0.00000000      -0.00000000      -0.00000000 
4
Lattice="4.294677286524144 4.735457165640629e-32 0.0 4.735457165640629e-32 4.294677286524145 -5.398421168830317e-31 0.0 -5.398421168830317e-31 4.294677286524144" Properties=species:S:1:pos:R:3:Z:I:1:forces:R:3 stress="0.38363816767300685 -2.2276047444446878e-34 -2.308858751611392e-65 -2.2276047444446878e-34 0.3836381676730069 4.455209488889636e-34 -2.308858751611392e-65 4.455209488889636e-34 0.38363816767300685" energy=-648.868176151 Minim_Constant_Volume=T Minim_Hydrostatic_Strain=F pbc="T T T"
Si       0.00000000       0.00000000       0.00000000       14       0.00000000       0.00000000       0.00000000 
Si       2.14733864       2.14733864      -0.00000000       14      -0.00000000      -0.00000000      -0.00000000 
Si       2.14733864      -0.00000000       2.14733864       14       0.00000000       0.00000000       0.00000000 
Si       0.00000000       2.14733864       2.14733864       14       0.00000000      -0.00000000       0.00000000 
4
Lattice="4.326256930101251 4.770277954139646e-32 0.0 4.770277954139646e-32 4.326256930101253 -5.4381168677191975e-31 0.0 -5.4381168677191975e-31 4.326256930101251" Properties=species:S:1:pos:R:3:Z:I:1:forces:R:3 stress="0.4168443963373911 -9.834507206890397e-32 -1.240073070366823e-62 -9.834507206890397e-32 0.41684439633739095 -3.512324002460815e-33 -1.240073070366823e-62 -3.512324002460815e-33 0.41684439633739107" energy=-648.16137404 Minim_Constant_Volume=T Minim_Hydrostatic_Strain=F pbc="T T T"
Si       0.00000000       0.00000000       0.00000000       14      -0.00000000      -0.00000000      -0.00000000 
Si       2.16312847       2.16312847      -0.00000000       14      -0.00000000       0.00000000      -0.00000000 
Si       2.16312847      -0.00000000       2.16312847       14       0.00000000      -0.00000000      -0.00000000 
Si       0.00000000       2.16312847       2.16312847       14       0.00000000       0.00000000      -0.00000000 
