4
Lattice="3.6082543309266253 -2.944015343997261e-32 0.0 -2.944015343997261e-32 3.6082543309266253 8.537644497592057e-31 0.0 8.537644497592057e-31 3.6082543309266253" Properties=species:S:1:pos:R:3:Z:I:1:forces:R:3 stress="4.3080233651258654e-05 5.264089448327295e-52 -3.295777002887264e-64 5.264089448327295e-52 4.3080233651258586e-05 4.0393816794072405e-32 -3.295777002887264e-64 4.0393816794072405e-32 4.3080233651258654e-05" energy=-651.315752108 Minim_Constant_Volume=T Minim_Hydrostatic_Strain=F pbc="T T T"
Si       0.00000000       0.00000000       0.00000000       14       0.00000000      -0.00000000       0.00000000 
Si       1.80412717       1.80412717       0.00000000       14       0.00000000      -0.00000000      -0.00000000 
Si       1.80412717       0.00000000       1.80412717       14      -0.00000000      -0.00000000       0.00000000 
Si      -0.00000000       1.80412717       1.80412717       14      -0.00000000      -0.00000000      -0.00000000 
4
Lattice="3.577931432347016 -2.9192745495561116e-32 0.0 -2.9192745495561116e-32 3.577931432347016 8.465896193712723e-31 0.0 8.465896193712723e-31 3.577931432347016" Properties=species:S:1:pos:R:3:Z:I:1:forces:R:3 stress="-0.03419463010163344 9.243313132244864e-32 -2.199407424850004e-62 9.243313132244864e-32 -0.03419463010163347 1.5084573514427385e-32 -2.199407424850004e-62 1.5084573514427385e-32 -0.03419463010163344" energy=-651.296552642 Minim_Constant_Volume=T Minim_Hydrostatic_Strain=F pbc="T T T"
Si       0.00000000       0.00000000       0.00000000       14       0.00000000      -0.00000000       0.00000000 
Si       1.78896572       1.78896572       0.00000000       14       0.00000000      -0.00000000      -0.00000000 
Si       1.78896572       0.00000000       1.78896572       14      -0.00000000       0.00000000       0.00000000 
Si      -0.00000000       1.78896572       1.78896572       14      -0.00000000      -0.00000000      -0.00000000 
4
Lattice="3.5470856609495716 -2.894107137294408e-32 0.0 -2.894107137294408e-32 3.5470856609495716 8.392910698153784e-31 0.0 8.392910698153784e-31 3.5470856609495716" Properties=species:S:1:pos:R:3:Z:I:1:forces:R:3 stress="-0.07862890064563771 2.0899496601621914e-32 -4.966434214761228e-63 2.0899496601621914e-32 -0.07862890064563768 2.6124370752027317e-33 -4.966434214761228e-63 2.6124370752027317e-33 -0.07862890064563773" energy=-651.231422197 Minim_Constant_Volume=T Minim_Hydrostatic_Strain=F pbc="T T T"
Si       0.00000000       0.00000000       0.00000000       14      -0.00000000       0.00000000       0.00000000 
Si       1.77354283       1.77354283       0.00000000       14       0.00000000      -0.00000000      -0.00000000 
Si       1.77354283       0.00000000       1.77354283       14       0.00000000       0.00000000       0.00000000 
Si      -0.00000000       1.77354283       1.77354283       14      -0.00000000      -0.00000000      -0.00000000 
4
Lattice="3.515693876038807 -2.868494226458098e-32 0.0 -2.868494226458098e-32 3.515693876038807 8.318633256728485e-31 0.0 8.318633256728485e-31 3.515693876038807" Properties=species:S:1:pos:R:3:Z:I:1:forces:R:3 stress="-0.14423918681194736 -6.38231637532455e-32 1.4580730659374124e-62 -6.38231637532455e-32 -0.1442391868119473 6.382316375324549e-32 1.4580730659374124e-62 6.382316375324549e-32 -0.14423918681194736" energy=-651.103732048 Minim_Constant_Volume=T Minim_Hydrostatic_Strain=F pbc="T T T"
Si       0.00000000       0.00000000       0.00000000       14       0.00000000      -0.00000000       0.00000000 
Si       1.75784694       1.75784694       0.00000000       14       0.00000000       0.00000000      -0.00000000 
Si       1.75784694       0.00000000       1.75784694       14      -0.00000000      -0.00000000       0.00000000 
Si      -0.00000000       1.75784694       1.75784694       14      -0.00000000       0.00000000      -0.00000000 
4
Lattice="3.483731253466946 -2.842415562745447e-32 0.0 -2.842415562745447e-32 3.483731253466946 8.243005131961796e-31 0.0 8.243005131961796e-31 3.483731253466946" Properties=species:S:1:pos:R:3:Z:I:1:forces:R:3 stress="-0.23534142744535735 1.963531663599069e-32 2.7083195359987162e-33 1.963531663599069e-32 -0.23534142744535747 3.385399419998427e-33 2.7083195359987162e-33 3.385399419998427e-33 -0.23534142744535735" energy=-650.882434857 Minim_Constant_Volume=T Minim_Hydrostatic_Strain=F pbc="T T T"
Si       0.00000000       0.00000000       0.00000000       14      -0.00000000       0.00000000      -0.00000000 
Si       1.74186563       1.74186563       0.00000000       14      -0.00000000       0.00000000       0.00000000 
Si       1.74186563       0.00000000       1.74186563       14       0.00000000       0.00000000      -0.00000000 
Si      -0.00000000       1.74186563       1.74186563       14       0.00000000       0.00000000       0.00000000 
4
Lattice="3.451171112501532 -2.815849377046371e-32 0.0 -2.815849377046371e-32 3.451171112501532 8.165963193434476e-31 0.0 8.165963193434476e-31 3.451171112501532" Properties=species:S:1:pos:R:3:Z:I:1:forces:R:3 stress="-0.3416881288743269 -1.5454118347315225e-31 3.5035532850167287e-62 -1.5454118347315225e-31 -0.3416881288743267 1.8765715136025625e-31 3.5035532850167287e-62 1.8765715136025625e-31 -0.3416881288743269" energy=-650.544941642 Minim_Constant_Volume=T Minim_Hydrostatic_Strain=F pbc="T T T"
Si       0.00000000       0.00000000       0.00000000       14      -0.00000000       0.00000000      -0.00000000 
Si       1.72558556       1.72558556       0.00000000       14      -0.00000000      -0.00000000       0.00000000 
Si       1.72558556       0.00000000       1.72558556       14       0.00000000       0.00000000      -0.00000000 
Si      -0.00000000       1.72558556       1.72558556       14       0.00000000      -0.00000000      -0.00000000 
4
Lattice="3.638075967023893 -2.968347152733956e-32 0.0 -2.968347152733956e-32 3.638075967023893 8.608206742928474e-31 0.0 8.608206742928474e-31 3.638075967023893" Properties=species:S:1:pos:R:3:Z:I:1:forces:R:3 stress="0.027420912204597664 4.966788430522588e-33 -1.2157375846140645e-63 4.966788430522588e-33 0.02742091220459764 4.9667884305225935e-33 -1.2157375846140645e-63 4.9667884305225935e-33 0.027420912204597664" energy=-651.299146898 Minim_Constant_Volume=T Minim_Hydrostatic_Strain=F pbc="T T T"
Si       0.00000000       0.00000000       0.00000000       14       0.00000000       0.00000000      -0.00000000 
Si       1.81903798       1.81903798       0.00000000       14       0.00000000      -0.00000000      -0.00000000 
Si       1.81903798       0.00000000       1.81903798       14      -0.00000000       0.00000000      -0.00000000 
Si      -0.00000000       1.81903798       1.81903798       14      -0.00000000      -0.00000000       0.00000000 
4
Lattice="3.667416556415239 -2.992286470045844e-32 0.0 -2.992286470045844e-32 3.667416556415239 8.677630763132948e-31 0.0 8.677630763132948e-31 3.667416556415239" Properties=species:S:1:pos:R:3:Z:I:1:forces:R:3 stress="0.047719467948307843 8.758640688499589e-30 -2.074652547445044e-60 8.758640688499589e-30 0.047719467948307843 2.7370752151561215e-31 -2.074652547445044e-60 2.7370752151561215e-31 0.04771946794830785" energy=-651.255913614 Minim_Constant_Volume=T Minim_Hydrostatic_Strain=F pbc="T T T"
Si       0.00000000       0.00000000       0.00000000       14       0.00000000      -0.00000000      -0.00000000 
Si       1.83370828       1.83370828       0.00000000       14       0.00000000      -0.00000000       0.00000000 
Si       1.83370828       0.00000000       1.83370828       14      -0.00000000      -0.00000000      -0.00000000 
Si      -0.00000000       1.83370828       1.83370828       14      -0.00000000      -0.00000000       0.00000000 
4
Lattice="3.696295041143167 -3.0158487509587245e-32 0.0 -3.0158487509587245e-32 3.696295041143167 8.745961377780303e-31 0.0 8.745961377780303e-31 3.696295041143167" Properties=species:S:1:pos:R:3:Z:I:1:forces:R:3 stress="0.06794367796653437 3.608670186480393e-33 -1.0305241258294002e-63 3.608670186480393e-33 0.06794367796653443 2.1652021118882342e-32 -1.0305241258294002e-63 2.1652021118882342e-32 0.06794367796653436" energy=-651.187133672 Minim_Constant_Volume=T Minim_Hydrostatic_Strain=F pbc="T T T"
Si       0.00000000       0.00000000       0.00000000       14       0.00000000      -0.00000000       0.00000000 
Si       1.84814752       1.84814752       0.00000000       14       0.00000000       0.00000000       0.00000000 
Si       1.84814752       0.00000000       1.84814752       14      -0.00000000      -0.00000000       0.00000000 
Si      -0.00000000       1.84814752       1.84814752       14       0.00000000       0.00000000       0.00000000 
4
Lattice="3.7247291973248737 -3.0390484992068094e-32 0.0 -3.0390484992068094e-32 3.7247291973248737 8.813240647699746e-31 0.0 8.813240647699746e-31 3.7247291973248737" Properties=species:S:1:pos:R:3:Z:I:1:forces:R:3 stress="0.0803788926995231 -4.2455874479615824e-30 1.0095151611229324e-60 -4.2455874479615824e-30 0.0803788926995231 -6.0651249256594026e-31 1.0095151611229324e-60 -6.0651249256594026e-31 0.0803788926995231" energy=-651.099366302 Minim_Constant_Volume=T Minim_Hydrostatic_Strain=F pbc="T T T"
Si       0.00000000       0.00000000       0.00000000       14      -0.00000000      -0.00000000       0.00000000 
Si       1.86236460       1.86236460       0.00000000       14      -0.00000000       0.00000000      -0.00000000 
Si       1.86236460       0.00000000       1.86236460       14       0.00000000      -0.00000000       0.00000000 
Si      -0.00000000       1.86236460       1.86236460       14       0.00000000       0.00000000       0.00000000 
4
Lattice="3.7527357316087224 -3.0618993459326446e-32 0.0 -3.0618993459326446e-32 3.7527357316087224 8.87950810320467e-31 0.0 8.87950810320467e-31 3.7527357316087224" Properties=species:S:1:pos:R:3:Z:I:1:forces:R:3 stress="0.08680115859103088 -1.5094922525108112e-49 7.61721380899143e-65 -1.5094922525108112e-49 0.0868011585910309 -9.33583609607471e-33 7.61721380899143e-65 -9.33583609607471e-33 0.08680115859103088" energy=-651.000682872 Minim_Constant_Volume=T Minim_Hydrostatic_Strain=F pbc="T T T"
Si       0.00000000       0.00000000       0.00000000       14      -0.00000000      -0.00000000      -0.00000000 
Si       1.87636787       1.87636787       0.00000000       14      -0.00000000      -0.00000000      -0.00000000 
Si       1.87636787       0.00000000       1.87636787       14       0.00000000       0.00000000      -0.00000000 
Si      -0.00000000       1.87636787       1.87636787       14       0.00000000      -0.00000000      -0.00000000 
4
Lattice="3.780330367698177 -3.0844141202829637e-32 0.0 -3.0844141202829637e-32 3.780330367698177 8.944800948820595e-31 0.0 8.944800948820595e-31 3.780330367698177" Properties=species:S:1:pos:R:3:Z:I:1:forces:R:3 stress="0.08825665862640614 2.944012512548112e-31 -3.603079445747843e-62 2.944012512548112e-31 0.0882566586264061 -4.1216175175673575e-30 -3.603079445747843e-62 -4.1216175175673575e-30 0.08825665862640615" energy=-650.897441611 Minim_Constant_Volume=T Minim_Hydrostatic_Strain=F pbc="T T T"
Si       0.00000000       0.00000000       0.00000000       14       0.00000000       0.00000000       0.00000000 
Si       1.89016518       1.89016518       0.00000000       14       0.00000000       0.00000000       0.00000000 
Si       1.89016518       0.00000000       1.89016518       14       0.00000000       0.00000000       0.00000000 
Si      -0.00000000       1.89016518       1.89016518       14       0.00000000       0.00000000       0.00000000 
