3
Lattice="4.00969761952195 -2.315 0.0 4.00969761952195 2.315 0.0 0.0 0.0 2.8243" Properties=species:S:1:pos:R:3:Z:I:1:map_shift:I:3:n_neighb:I:1:force:R:3:forces:R:3 virial="-6.487110551211937 6.336077496005288e-16 7.784571598445922e-17 1.0226195023232176e-15 -6.487110551210985 1.6479873021779667e-17 1.4745149492202878e-16 2.393918396847994e-16 -1.5813173471447683" energy=-18.2875930275 stress="0.12372226421546849 3.0536126237749465e-17 3.2596023847220524e-35 3.0536126237749465e-17 0.12372226421546854 1.0064246724141825e-34 3.2596023847220524e-35 1.0064246724141825e-34 0.030158906817984235" pbc="T T T"
Ti       1.33656587       0.00000000       0.00000000       22        0        0        0       70       0.00000000      -0.00000000      -0.00000000       0.00000000       0.00000000       0.00000000 
Ti       4.00969762       0.00000000       1.41215000       22       -1       -1       -1       70      -0.00000000      -0.00000000       0.00000000      -0.00000000      -0.00000000       0.00000000 
Ti       6.68282937       0.00000000       1.41215000       22       -1       -1       -1       70       0.00000000       0.00000000       0.00000000      -0.00000000      -0.00000000       0.00000000 
3
Lattice="3.9221687344346634 -2.264465174632987 1.8047324748566842e-35 3.9221687344346634 2.264465174632987 -6.416826577268212e-35 -1.6243042006486606e-35 -5.015151021796187e-35 2.8092714065552813" Properties=species:S:1:pos:R:3:Z:I:1:map_shift:I:3:n_neighb:I:1:force:R:3:forces:R:3 virial="-0.9073510421755321 -1.5536617142057036e-16 -1.0515893645196956e-14 -5.298699242445932e-17 -0.9073510421753241 3.2508449887953523e-16 -1.0236820008155314e-14 -2.7321856075941075e-17 2.08131360294406" energy=-18.4874724618 stress="0.018182756737702505 2.340585532227447e-19 -2.982833201272111e-33 2.340585532227447e-19 0.018182756737702498 8.839740976570616e-22 -2.982833201272111e-33 8.839740976570616e-22 -0.04170824430472873" pbc="T T T"
Ti       1.30738958      -0.00000000      -0.00000000       22        0        0        0       70      -0.00000000       0.00000000      -0.00000000       0.00000000       0.00000000       0.00000000 
Ti       3.92216873      -0.00000000       1.40463570       22       -1       -1       -1       76      -0.00000000       0.00000000       0.00000000       0.00000000      -0.00000000       0.00000000 
Ti       6.53694789      -0.00000000       1.40463570       22       -1       -1       -1       76       0.00000000      -0.00000000       0.00000000      -0.00000000       0.00000000      -0.00000000 
3
Lattice="3.910061716353433 -2.257475184484705 4.32556445558274e-22 3.910061716353433 2.257475184484705 -4.325564455532618e-22 1.7354592031589603e-33 -5.189606111580005e-22 2.8343245910390373" Properties=species:S:1:pos:R:3:Z:I:1:map_shift:I:3:n_neighb:I:1:force:R:3:forces:R:3 virial="0.03464568879041119 2.76254700986501e-16 3.7296556175897546e-16 6.960747962900702e-17 0.0346456887920481 -1.049372380870646e-16 1.8691643913026206e-16 3.3306697159720175e-16 -0.4080214110507563" energy=-18.4983773758 stress="-0.0006924095068717714 -9.322408177380185e-20 1.2483204177283652e-34 -9.322408177380185e-20 -0.0006924095068717714 2.6735002765279243e-34 1.2483204177283652e-34 2.6735002765279243e-34 0.008154489458160118" pbc="T T T"
Ti       1.30335391      -0.00000000       0.00000000       22        0        0        0       70       0.00000000       0.00000000      -0.00000000       0.00000000       0.00000000       0.00000000 
Ti       3.91006172      -0.00000000       1.41716230       22       -1       -1       -1       76       0.00000000       0.00000000       0.00000000      -0.00000000      -0.00000000       0.00000000 
Ti       6.51676953      -0.00000000       1.41716230       22       -1       -1       -1       76      -0.00000000      -0.00000000       0.00000000       0.00000000       0.00000000       0.00000000 
3
Lattice="3.9104096046986747 -2.2576760379144782 2.1765524781813337e-21 3.9104096046986747 2.2576760379144782 -2.1765524781608387e-21 7.04315229436906e-33 -2.5891172362715693e-21 2.830194971090086" Properties=species:S:1:pos:R:3:Z:I:1:map_shift:I:3:n_neighb:I:1:force:R:3:forces:R:3 virial="0.09796997379256434 -1.213439091608304e-15 1.077696440394757e-16 -9.058509543129473e-16 0.09796997379275818 2.5157220665936143e-16 4.922276226300553e-16 5.1174811241295503e-17 0.14321878088404116" energy=-18.4985768713 stress="-0.0019604815826114795 -1.7074586612172055e-19 -1.3679737213443269e-35 -1.7074586612172055e-19 -0.0019604815826114786 -2.502353675337005e-20 -1.3679737213443269e-35 -2.502353675337005e-20 -0.0028659575106292834" pbc="T T T"
Ti       1.30346987      -0.00000000       0.00000000       22        0        0        0       70      -0.00000000       0.00000000       0.00000000       0.00000000       0.00000000       0.00000000 
Ti       3.91040960      -0.00000000       1.41509749       22       -1       -1       -1       76       0.00000000      -0.00000000      -0.00000000       0.00000000      -0.00000000       0.00000000 
Ti       6.51734934      -0.00000000       1.41509749       22       -1       -1       -1       76      -0.00000000      -0.00000000      -0.00000000      -0.00000000       0.00000000      -0.00000000 
3
Lattice="3.9114913108186613 -2.2583005612340363 -2.481785985641115e-19 3.9114913108186613 2.2583005612340363 2.481785985641287e-19 5.92380802331508e-33 2.946573581830682e-19 2.830999401682577" Properties=species:S:1:pos:R:3:Z:I:1:map_shift:I:3:n_neighb:I:1:force:R:3:forces:R:3 virial="-0.05559583421541392 -6.967082699755648e-16 3.758581900969902e-14 3.2114749508276863e-16 -0.05559583421524983 9.97533865108038e-17 3.739110460630406e-14 -5.729030130165415e-17 -0.002414660943744096" energy=-18.4986086624 stress="0.001111599558668768 6.497480611271085e-19 1.1866485649071142e-32 6.497480611271085e-19 0.0011115995586687686 2.4151310831698456e-22 1.1866485649071142e-32 2.4151310831698456e-22 4.8279445344853446e-05" pbc="T T T"
Ti       1.30383044      -0.00000000       0.00000000       22        0        0        0       70      -0.00000000      -0.00000000      -0.00000000       0.00000000       0.00000000       0.00000000 
Ti       3.91149131       0.00000000       1.41549970       22       -1       -1       -1       76       0.00000000      -0.00000000      -0.00000000       0.00000000      -0.00000000      -0.00000000 
Ti       6.51915218       0.00000000       1.41549970       22       -1       -1       -1       76      -0.00000000      -0.00000000       0.00000000      -0.00000000       0.00000000       0.00000000 
3
Lattice="3.910972231454538 -2.258000870623429 -2.6182088218939373e-19 3.910972231454538 2.258000870623429 2.6182088218900257e-19 -1.3401896775125096e-31 3.122330777668398e-19 2.831180714450329" Properties=species:S:1:pos:R:3:Z:I:1:map_shift:I:3:n_neighb:I:1:force:R:3:forces:R:3 virial="0.0038537166162386782 -4.0766000372305744e-16 3.954952823552171e-15 -6.921495969041344e-16 0.0038537166168035597 -1.5653508676949002e-16 3.5180278861987953e-15 -3.647640449178426e-17 -0.007864896536966759" energy=-18.4986152035 stress="-7.706786912489538e-05 -2.143471974538516e-20 -7.477236652471742e-34 -2.143471974538516e-20 -7.706786912489544e-05 2.2720467305497137e-36 -7.477236652471742e-34 2.2720467305497137e-36 0.0001572847402409605" pbc="T T T"
Ti       1.30365741      -0.00000000      -0.00000000       22        0        0        0       70       0.00000000       0.00000000      -0.00000000       0.00000000       0.00000000       0.00000000 
Ti       3.91097223       0.00000000       1.41559036       22       -1       -1       -1       76      -0.00000000      -0.00000000       0.00000000      -0.00000000      -0.00000000      -0.00000000 
Ti       6.51828705       0.00000000       1.41559036       22       -1       -1       -1       76       0.00000000      -0.00000000       0.00000000       0.00000000       0.00000000       0.00000000 
