3
Lattice="3.911021339868679 -2.2580292233795527 -2.6181430704257477e-19 3.911021339868679 2.2580292233795527 2.618143070421239e-19 -1.5563269563363804e-31 3.1223699834470063e-19 2.831109614587274" Properties=species:S:1:pos:R:3:Z:I:1:map_shift:I:3:n_neighb:I:1:force:R:3:forces:R:3 stress="8.411956387105273e-06 2.705889201144294e-21 4.7496543819930596e-32 2.705889201144294e-21 8.411956387105276e-06 4.283736732454732e-22 4.7496543819930596e-32 4.283736732454732e-22 2.235015333034503e-06" Minim_Constant_Volume=T pbc="T T T" virial="0.0038537166162386782 -4.0766000372305744e-16 3.954952823552171e-15 -6.921495969041344e-16 0.0038537166168035597 -1.5653508676949002e-16 3.5180278861987953e-15 -3.647640449178426e-17 -0.007864896536966759" energy=-18.4986153467 Minim_Hydrostatic_Strain=F
Ti       1.30367378      -0.00000000      -0.00000000       22        0        0        0       70       0.00000000       0.00000000      -0.00000000       0.00000000       0.00000000       0.00000000 
Ti       3.91102134       0.00000000       1.41555481       22        0        0        0       76      -0.00000000      -0.00000000       0.00000000      -0.00000000       0.00000000      -0.00000000 
Ti       6.51836890       0.00000000       1.41555481       22       -1       -1        0       76       0.00000000      -0.00000000       0.00000000       0.00000000      -0.00000000       0.00000000 
3
Lattice="3.8858475890538893 -2.2434951515701207 8.516197550165585e-18 3.8858475890538893 2.2434951515701207 -8.516197550165546e-18 1.9925325165057279e-32 -1.069156504301475e-17 2.7961792729721737" Properties=species:S:1:pos:R:3:Z:I:1:map_shift:I:3:n_neighb:I:1:force:R:3:forces:R:3 stress="-0.06822102612396215 -4.616288265754077e-18 -4.8041170266123664e-32 -4.616288265754077e-18 -0.06822102612396214 2.5147536238051553e-31 -4.8041170266123664e-32 2.5147536238051553e-31 -0.06821796382161653" Minim_Constant_Volume=T pbc="T T T" virial="0.0038537166162386782 -4.0766000372305744e-16 3.954952823552171e-15 -6.921495969041344e-16 0.0038537166168035597 -1.5653508676949002e-16 3.5180278861987953e-15 -3.647640449178426e-17 -0.007864896536966759" energy=-18.4495943844 Minim_Hydrostatic_Strain=F
Ti       1.29528253       0.00000000      -0.00000000       22        0        0        0       94       0.00000000       0.00000000      -0.00000000       0.00000000       0.00000000       0.00000000 
Ti       3.88584759      -0.00000000       1.39808964       22        0        0        0       88      -0.00000000      -0.00000000       0.00000000      -0.00000000       0.00000000       0.00000000 
Ti       6.47641265      -0.00000000       1.39808964       22       -1       -1        0       88       0.00000000      -0.00000000       0.00000000       0.00000000      -0.00000000       0.00000000 
3
Lattice="3.9191032377683794 -2.262695309307507 8.150274200146733e-18 3.9191032377683794 2.2626953093075075 -8.150274200146724e-18 1.0303323014705483e-32 -1.0783065011330578e-17 2.6760332476137916" Properties=species:S:1:pos:R:3:Z:I:1:map_shift:I:3:n_neighb:I:1:force:R:3:forces:R:3 stress="0.03845427094539707 -5.002181157363269e-18 3.0086539055318397e-33 -5.002181157363269e-18 0.03845427094539705 4.073003254900888e-19 3.0086539055318397e-33 4.073003254900888e-19 0.03841268451120702" Minim_Constant_Volume=T pbc="T T T" virial="0.0038537166162386782 -4.0766000372305744e-16 3.954952823552171e-15 -6.921495969041344e-16 0.0038537166168035597 -1.5653508676949002e-16 3.5180278861987953e-15 -3.647640449178426e-17 -0.007864896536966759" energy=-18.3948645109 Minim_Hydrostatic_Strain=F
Ti       1.30636775       0.00000000      -0.00000000       22        0        0        0       70       0.00000000       0.00000000      -0.00000000       0.00000000       0.00000000       0.00000000 
Ti       3.91910324       0.00000000       1.33801662       22        0        0        0       76      -0.00000000      -0.00000000       0.00000000      -0.00000000      -0.00000000       0.00000000 
Ti       6.53183873       0.00000000       1.33801662       22       -1       -1        0       76       0.00000000      -0.00000000       0.00000000       0.00000000       0.00000000      -0.00000000 
3
Lattice="3.933668696421844 -2.2711046807819555 7.150972203034904e-18 3.933668696421844 2.271104680781956 -7.150972203034869e-18 1.996529102247823e-32 -9.960151451418254e-18 2.5875105918517805" Properties=species:S:1:pos:R:3:Z:I:1:map_shift:I:3:n_neighb:I:1:force:R:3:forces:R:3 stress="0.09062265621039345 1.3769830196104239e-17 -2.023673967441156e-33 1.3769830196104239e-17 0.09062265621039346 -2.305898846744004e-18 -2.023673967441156e-33 -2.305898846744004e-18 0.0906435575481648" Minim_Constant_Volume=T pbc="T T T" virial="0.0038537166162386782 -4.0766000372305744e-16 3.954952823552171e-15 -6.921495969041344e-16 0.0038537166168035597 -1.5653508676949002e-16 3.5180278861987953e-15 -3.647640449178426e-17 -0.007864896536966759" energy=-18.5026382781 Minim_Hydrostatic_Strain=F
Ti       1.31122290       0.00000000      -0.00000000       22        0        0        0       94       0.00000000       0.00000000      -0.00000000       0.00000000       0.00000000       0.00000000 
Ti       3.93366870       0.00000000       1.29375530       22        0       -1        0       94      -0.00000000      -0.00000000       0.00000000      -0.00000000      -0.00000000       0.00000000 
Ti       6.55611449       0.00000000       1.29375530       22       -1       -1        0       94       0.00000000      -0.00000000       0.00000000       0.00000000       0.00000000      -0.00000000 
3
Lattice="3.9112786533703527 -2.2581777833990095 6.788227649928029e-18 3.9112786533703527 2.25817778339901 -6.788227649928115e-18 -2.011046716297486e-32 -9.615902517523007e-18 2.5475812150061214" Properties=species:S:1:pos:R:3:Z:I:1:map_shift:I:3:n_neighb:I:1:force:R:3:forces:R:3 stress="0.008798952014522006 2.3356850424264165e-18 7.914851434904214e-32 2.3356850424264165e-18 0.008798952014522021 5.099322434336853e-19 7.914851434904214e-32 5.099322434336853e-19 0.00876811777302827" Minim_Constant_Volume=T pbc="T T T" virial="0.0038537166162386782 -4.0766000372305744e-16 3.954952823552171e-15 -6.921495969041344e-16 0.0038537166168035597 -1.5653508676949002e-16 3.5180278861987953e-15 -3.647640449178426e-17 -0.007864896536966759" energy=-18.5678052834 Minim_Hydrostatic_Strain=F
Ti       1.30375955       0.00000000      -0.00000000       22        0        0        0       94       0.00000000       0.00000000      -0.00000000       0.00000000       0.00000000       0.00000000 
Ti       3.91127865       0.00000000       1.27379061       22        0       -1        0       94      -0.00000000      -0.00000000       0.00000000      -0.00000000       0.00000000      -0.00000000 
Ti       6.51879776       0.00000000       1.27379061       22       -1       -1        0       94       0.00000000      -0.00000000       0.00000000       0.00000000      -0.00000000      -0.00000000 
3
Lattice="3.8781172075288195 -2.239032013715683 4.8046132337906386e-18 3.8781172075288195 2.2390320137156836 -4.80461323379072e-18 -1.8960597327627567e-32 -7.381169320804838e-18 2.519429857617043" Properties=species:S:1:pos:R:3:Z:I:1:map_shift:I:3:n_neighb:I:1:force:R:3:forces:R:3 stress="-0.09656813856659871 1.6872222131782598e-17 -2.1062942726824764e-33 1.6872222131782598e-17 -0.09656813856659885 -2.7812566518444965e-18 -2.1062942726824764e-33 -2.7812566518444965e-18 -0.096708403822339" Minim_Constant_Volume=T pbc="T T T" virial="0.0038537166162386782 -4.0766000372305744e-16 3.954952823552171e-15 -6.921495969041344e-16 0.0038537166168035597 -1.5653508676949002e-16 3.5180278861987953e-15 -3.647640449178426e-17 -0.007864896536966759" energy=-18.5124758287 Minim_Hydrostatic_Strain=F
Ti       1.29270574       0.00000000      -0.00000000       22        0        0        0      118       0.00000000       0.00000000      -0.00000000       0.00000000       0.00000000       0.00000000 
Ti       3.87811721      -0.00000000       1.25971493       22       -1        0        0      106      -0.00000000      -0.00000000       0.00000000       0.00000000       0.00000000      -0.00000000 
Ti       6.46352868       0.00000000       1.25971493       22       -1       -1        0      106       0.00000000      -0.00000000       0.00000000      -0.00000000      -0.00000000       0.00000000 
3
Lattice="3.9350466911237856 -2.2719002663940637 -2.6508926358893046e-19 3.9350466911237856 2.2719002663940637 2.650892635885278e-19 -1.3725862905596976e-31 3.141550660074232e-19 2.8665231145998056" Properties=species:S:1:pos:R:3:Z:I:1:map_shift:I:3:n_neighb:I:1:force:R:3:forces:R:3 stress="0.05971182110208586 3.1918655242395477e-17 2.1464233756666348e-33 3.1918655242395477e-17 0.059711821102085956 -6.086659545563981e-35 2.1464233756666348e-33 -6.086659545563981e-35 0.059687014596237306" Minim_Constant_Volume=T pbc="T T T" virial="0.0038537166162386782 -4.0766000372305744e-16 3.954952823552171e-15 -6.921495969041344e-16 0.0038537166168035597 -1.5653508676949002e-16 3.5180278861987953e-15 -3.647640449178426e-17 -0.007864896536966759" energy=-18.4526444878 Minim_Hydrostatic_Strain=F
Ti       1.31168223       0.00000000      -0.00000000       22        0        0        0       70       0.00000000       0.00000000      -0.00000000       0.00000000       0.00000000       0.00000000 
Ti       3.93504669       0.00000000       1.43326156       22        0       -1       -1       76      -0.00000000      -0.00000000       0.00000000       0.00000000      -0.00000000      -0.00000000 
Ti       6.55841115       0.00000000       1.43326156       22       -1       -1       -1       76       0.00000000      -0.00000000       0.00000000       0.00000000       0.00000000       0.00000000 
3
Lattice="3.953732367288668 -2.2826884465578487 -1.1877747774913641e-17 3.953732367288668 2.2826884465578487 1.1877747774913236e-17 -1.3668667289586752e-31 1.4962757922278685e-17 2.9086918335552703" Properties=species:S:1:pos:R:3:Z:I:1:map_shift:I:3:n_neighb:I:1:force:R:3:forces:R:3 stress="0.09053551894209076 1.8958279865606793e-17 -8.327890784768639e-33 1.8958279865606793e-17 0.09053551894209085 1.9609274225478732e-32 -8.327890784768639e-33 1.9609274225478732e-32 0.09041562985035961" Minim_Constant_Volume=T pbc="T T T" virial="0.0038537166162386782 -4.0766000372305744e-16 3.954952823552171e-15 -6.921495969041344e-16 0.0038537166168035597 -1.5653508676949002e-16 3.5180278861987953e-15 -3.647640449178426e-17 -0.007864896536966759" energy=-18.3582125329 Minim_Hydrostatic_Strain=F
Ti       1.31791079      -0.00000000      -0.00000000       22        0        0        0       70       0.00000000       0.00000000      -0.00000000       0.00000000       0.00000000       0.00000000 
Ti       3.95373237       0.00000000       1.45434592       22        0        0       -1       76      -0.00000000      -0.00000000       0.00000000      -0.00000000       0.00000000       0.00000000 
Ti       6.58955395      -0.00000000       1.45434592       22       -1       -1       -1       76       0.00000000      -0.00000000       0.00000000       0.00000000      -0.00000000      -0.00000000 
3
Lattice="3.978056627252742 -2.296732064595945 -1.2012575711228859e-17 3.978056627252742 2.2967320645959455 1.2012575711228914e-17 3.365690628946655e-32 1.505481220913266e-17 2.941709281368352" Properties=species:S:1:pos:R:3:Z:I:1:map_shift:I:3:n_neighb:I:1:force:R:3:forces:R:3 stress="0.11312534686537012 1.7283307888552295e-17 -2.3420628338173477e-32 1.7283307888552295e-17 0.11312534686537007 2.4354350703757497e-18 -2.3420628338173477e-32 2.4354350703757497e-18 0.11311832903663831" Minim_Constant_Volume=T pbc="T T T" virial="0.0038537166162386782 -4.0766000372305744e-16 3.954952823552171e-15 -6.921495969041344e-16 0.0038537166168035597 -1.5653508676949002e-16 3.5180278861987953e-15 -3.647640449178426e-17 -0.007864896536966759" energy=-18.2297681444 Minim_Hydrostatic_Strain=F
Ti       1.32601888       0.00000000      -0.00000000       22        0        0        0       70       0.00000000       0.00000000      -0.00000000       0.00000000       0.00000000       0.00000000 
Ti       3.97805663       0.00000000       1.47085464       22        0       -1       -1       70      -0.00000000      -0.00000000       0.00000000       0.00000000       0.00000000       0.00000000 
Ti       6.63009438      -0.00000000       1.47085464       22       -1       -1       -1       70       0.00000000      -0.00000000       0.00000000       0.00000000       0.00000000       0.00000000 
3
Lattice="4.020057066870209 -2.320981029715172 -1.5665278016038532e-17 4.020057066870209 2.3209810297151723 1.5665278016038588e-17 3.302771266254857e-32 1.9861908556280308e-17 2.9475065035335213" Properties=species:S:1:pos:R:3:Z:I:1:map_shift:I:3:n_neighb:I:1:force:R:3:forces:R:3 stress="0.11500038537737034 1.62117743018173e-17 6.5632851166459e-32 1.62117743018173e-17 0.11500038537737049 1.153717336839791e-31 6.5632851166459e-32 1.153717336839791e-31 0.11491727243258093" Minim_Constant_Volume=T pbc="T T T" virial="0.0038537166162386782 -4.0766000372305744e-16 3.954952823552171e-15 -6.921495969041344e-16 0.0038537166168035597 -1.5653508676949002e-16 3.5180278861987953e-15 -3.647640449178426e-17 -0.007864896536966759" energy=-18.0830517978 Minim_Hydrostatic_Strain=F
Ti       1.34001902       0.00000000      -0.00000000       22        0        0        0       70       0.00000000       0.00000000      -0.00000000       0.00000000       0.00000000       0.00000000 
Ti       4.02005707       0.00000000       1.47375325       22        0       -1       -1       70      -0.00000000      -0.00000000       0.00000000      -0.00000000       0.00000000       0.00000000 
Ti       6.70009511       0.00000000       1.47375325       22       -1       -1       -1       70       0.00000000      -0.00000000       0.00000000       0.00000000      -0.00000000      -0.00000000 
3
Lattice="4.233366213289701 -2.4441351228210735 -2.78129280302891e-17 4.233366213289701 2.4441351228210744 2.781292803028901e-17 -1.9673990057306071e-32 3.8004548615029525e-17 2.701269529883596" Properties=species:S:1:pos:R:3:Z:I:1:map_shift:I:3:n_neighb:I:1:force:R:3:forces:R:3 stress="-0.09172136767709697 -7.548235069169353e-18 2.2462663897973538e-32 -7.548235069169353e-18 -0.09172136767709708 -1.5930068914720906e-17 2.2462663897973538e-32 -1.5930068914720906e-17 -0.09180148767369738" Minim_Constant_Volume=T pbc="T T T" virial="0.0038537166162386782 -4.0766000372305744e-16 3.954952823552171e-15 -6.921495969041344e-16 0.0038537166168035597 -1.5653508676949002e-16 3.5180278861987953e-15 -3.647640449178426e-17 -0.007864896536966759" energy=-18.1428972958 Minim_Hydrostatic_Strain=F
Ti       1.41112207       0.00000000      -0.00000000       22        0        0        0       70       0.00000000       0.00000000      -0.00000000       0.00000000       0.00000000       0.00000000 
Ti       4.23336621       0.00000000       1.35063476       22        0        0       -1       70      -0.00000000      -0.00000000       0.00000000       0.00000000       0.00000000       0.00000000 
Ti       7.05561036       0.00000000       1.35063476       22       -1       -1       -1       70       0.00000000      -0.00000000       0.00000000      -0.00000000       0.00000000       0.00000000 
3
Lattice="4.275863987296453 -2.468671224083832 -2.9698712336143056e-17 4.275863987296453 2.468671224083833 2.9698712336143006e-17 -6.551337577327549e-33 4.021303833984769e-17 2.723872250211987" Properties=species:S:1:pos:R:3:Z:I:1:map_shift:I:3:n_neighb:I:1:force:R:3:forces:R:3 stress="-0.040644952344107595 -1.9119594874538827e-17 -4.3932221073484843e-32 -1.9119594874538827e-17 -0.040644952344107664 -1.3102523899246825e-18 -4.3932221073484843e-32 -1.3102523899246825e-18 -0.04064694028841119" Minim_Constant_Volume=T pbc="T T T" virial="0.0038537166162386782 -4.0766000372305744e-16 3.954952823552171e-15 -6.921495969041344e-16 0.0038537166168035597 -1.5653508676949002e-16 3.5180278861987953e-15 -3.647640449178426e-17 -0.007864896536966759" energy=-18.2550723388 Minim_Hydrostatic_Strain=F
Ti       1.42528800       0.00000000      -0.00000000       22        0        0        0       58       0.00000000       0.00000000      -0.00000000       0.00000000       0.00000000       0.00000000 
Ti       4.27586399       0.00000000       1.36193613       22        0        0       -1       64      -0.00000000      -0.00000000       0.00000000      -0.00000000       0.00000000       0.00000000 
Ti       7.12643998       0.00000000       1.36193613       22       -1       -1       -1       64       0.00000000      -0.00000000       0.00000000       0.00000000      -0.00000000      -0.00000000 
