2
Lattice="3.0872058499365416 -7.051737700343728e-35 2.8910920769558334e-34 -7.051737700343728e-35 3.0872058499365416 3.537895163281483e-69 2.8910920769558334e-34 7.075790326562966e-69 3.0872058499365416" Properties=species:S:1:pos:R:3:Z:I:1:forces:R:3 stress="3.293005119272918e-05 5.05183685932703e-36 -1.3471564958205413e-35 5.05183685932703e-36 3.293005119272918e-05 -1.0721626409501108e-20 -1.3471564958205413e-35 -1.0721626409501108e-20 3.293005119272916e-05" energy=-325.204931343 Minim_Constant_Volume=T Minim_Hydrostatic_Strain=F pbc="T T T"
Si       0.00000000       0.00000000       0.00000000       14       0.00000000       0.00000000       0.00000000 
Si       1.54360292       1.54360292       1.54360292       14       0.00000000       0.00000000       0.00000000 
2
Lattice="3.0612617170411305 -6.992476598579148e-35 2.8667960368783785e-34 -6.992476598579148e-35 3.0612617170411305 3.5081635461662545e-69 2.8667960368783785e-34 7.016327092332509e-69 3.0612617170411305" Properties=species:S:1:pos:R:3:Z:I:1:forces:R:3 stress="-0.01592004175926885 1.0960700043101013e-34 8.220525032325769e-35 1.0960700043101013e-34 -0.015920041759268852 3.2314779124872807e-18 8.220525032325769e-35 3.2314779124872807e-18 -0.015920041759268852" energy=-325.199180792 Minim_Constant_Volume=T Minim_Hydrostatic_Strain=F pbc="T T T"
Si       0.00000000       0.00000000       0.00000000       14      -0.00000000      -0.00000000       0.00000000 
Si       1.53063086       1.53063086       1.53063086       14      -0.00000000      -0.00000000      -0.00000000 
2
Lattice="3.0348702165618557 -6.932193628170107e-35 2.84208104810101e-34 -6.932193628170107e-35 3.0348702165618557 3.4779192519934877e-69 2.84208104810101e-34 6.955838503986975e-69 3.0348702165618557" Properties=species:S:1:pos:R:3:Z:I:1:forces:R:3 stress="-0.03298440532243834 -1.0106644412235769e-34 -8.7126244933067e-35 -1.0106644412235769e-34 -0.03298440532243832 9.330881307887224e-18 -8.7126244933067e-35 9.330881307887224e-18 -0.032984405322438334" energy=-325.18123375 Minim_Constant_Volume=T Minim_Hydrostatic_Strain=F pbc="T T T"
Si       0.00000000       0.00000000       0.00000000       14       0.00000000       0.00000000       0.00000000 
Si       1.51743511       1.51743511       1.51743511       14      -0.00000000       0.00000000      -0.00000000 
2
Lattice="3.008011549425835 -6.87084356444567e-35 2.816928569280675e-34 -6.87084356444567e-35 3.008011549425835 3.447139591299767e-69 2.816928569280675e-34 6.894279182599534e-69 3.008011549425835" Properties=species:S:1:pos:R:3:Z:I:1:forces:R:3 stress="-0.04990982966244738 -1.4190255911744723e-35 -2.1285383867617085e-35 -1.4190255911744723e-35 -0.049909829662447364 -2.131695878220325e-17 -2.1285383867617085e-35 -2.131695878220325e-17 -0.04990982966244738" energy=-325.150663624 Minim_Constant_Volume=T Minim_Hydrostatic_Strain=F pbc="T T T"
Si       0.00000000       0.00000000       0.00000000       14       0.00000000       0.00000000       0.00000000 
Si       1.50400577       1.50400577       1.50400577       14       0.00000000       0.00000000       0.00000000 
2
Lattice="2.9806644762061314 -6.808377892705184e-35 2.7913187102182994e-34 -6.808377892705184e-35 2.9806644762061314 3.4158002239958726e-69 2.7913187102182994e-34 6.831600447991745e-69 2.9806644762061314" Properties=species:S:1:pos:R:3:Z:I:1:forces:R:3 stress="-0.0708711654935483 1.156146929882002e-33 1.1561469298820016e-33 1.156146929882002e-33 -0.07087116549354834 1.1570467405837861e-17 1.1561469298820016e-33 1.1570467405837861e-17 -0.07087116549354833" energy=-325.106830715 Minim_Constant_Volume=T Minim_Hydrostatic_Strain=F pbc="T T T"
Si       0.00000000       0.00000000       0.00000000       14       0.00000000      -0.00000000       0.00000000 
Si       1.49033224       1.49033224       1.49033224       14      -0.00000000      -0.00000000      -0.00000000 
2
Lattice="2.952806168990474 -6.744744469859587e-35 2.765230093137503e-34 -6.744744469859587e-35 2.952806168990474 3.383874989610381e-69 2.765230093137503e-34 6.767749979220762e-69 2.952806168990474" Properties=species:S:1:pos:R:3:Z:I:1:forces:R:3 stress="-0.10478356961630617 7.362907625512842e-36 3.0832175681835025e-35 7.362907625512842e-36 -0.10478356961630624 2.3886410165485858e-17 3.0832175681835025e-35 2.3886410165485858e-17 -0.10478356961630622" energy=-325.043194201 Minim_Constant_Volume=T Minim_Hydrostatic_Strain=F pbc="T T T"
Si       0.00000000       0.00000000       0.00000000       14       0.00000000       0.00000000       0.00000000 
Si       1.47640308       1.47640308       1.47640308       14       0.00000000       0.00000000       0.00000000 
2
Lattice="3.112721104951983 -7.1100191672987e-35 2.9149864834846906e-34 -7.1100191672987e-35 3.112721104951983 3.5671352922838556e-69 2.9149864834846906e-34 7.134270584567711e-69 3.112721104951983" Properties=species:S:1:pos:R:3:Z:I:1:forces:R:3 stress="0.014266318979495964 4.683758045437332e-38 1.3974469011911928e-51 4.683758045437332e-38 0.014266318979495974 -5.6959260237165025e-18 1.3974469011911928e-51 -5.6959260237165025e-18 0.014266318979495977" energy=-325.199558502 Minim_Constant_Volume=T Minim_Hydrostatic_Strain=F pbc="T T T"
Si       0.00000000       0.00000000       0.00000000       14      -0.00000000      -0.00000000      -0.00000000 
Si       1.55636055       1.55636055       1.55636055       14      -0.00000000       0.00000000       0.00000000 
2
Lattice="3.137824778613004 -7.167360507843318e-35 2.938495454234197e-34 -7.167360507843318e-35 3.137824778613004 3.59590375475219e-69 2.938495454234197e-34 7.19180750950438e-69 3.137824778613004" Properties=species:S:1:pos:R:3:Z:I:1:forces:R:3 stress="0.026704378755419412 6.220388322361365e-52 -3.9299533754000974e-51 6.220388322361365e-52 0.026704378755419398 4.194395168437687e-18 -3.9299533754000974e-51 4.194395168437687e-18 0.026704378755419388" energy=-325.184387049 Minim_Constant_Volume=T Minim_Hydrostatic_Strain=F pbc="T T T"
Si       0.00000000       0.00000000       0.00000000       14      -0.00000000       0.00000000      -0.00000000 
Si       1.56891239       1.56891239       1.56891239       14       0.00000000       0.00000000       0.00000000 
2
Lattice="3.1625330776442615 -7.223798741074078e-35 2.961634166401963e-34 -7.223798741074078e-35 3.1625330776442615 3.6242191233685706e-69 2.961634166401963e-34 7.248438246737141e-69 3.1625330776442615" Properties=species:S:1:pos:R:3:Z:I:1:forces:R:3 stress="0.03773262952362026 1.6276277127755674e-37 -1.0344063035127722e-51 1.6276277127755674e-37 0.03773262952362024 2.092396824597356e-17 -1.0344063035127722e-51 2.092396824597356e-17 0.03773262952362024" energy=-325.160619524 Minim_Constant_Volume=T Minim_Hydrostatic_Strain=F pbc="T T T"
Si       0.00000000       0.00000000       0.00000000       14       0.00000000      -0.00000000       0.00000000 
Si       1.58126654       1.58126654       1.58126654       14      -0.00000000       0.00000000       0.00000000 
2
Lattice="3.1868612112100654 -7.27936860747884e-35 2.9844168629949563e-34 -7.27936860747884e-35 3.1868612112100654 3.652098827624732e-69 2.9844168629949563e-34 7.304197655249464e-69 3.1868612112100654" Properties=species:S:1:pos:R:3:Z:I:1:forces:R:3 stress="0.04802438451172372 -4.005929644924914e-50 1.0113766276679447e-34 -4.005929644924914e-50 0.04802438451172374 -2.3099245489843354e-17 1.0113766276679447e-34 -2.3099245489843354e-17 0.04802438451172374" energy=-325.129056654 Minim_Constant_Volume=T Minim_Hydrostatic_Strain=F pbc="T T T"
Si       0.00000000       0.00000000       0.00000000       14       0.00000000       0.00000000       0.00000000 
Si       1.59343061       1.59343061       1.59343061       14       0.00000000       0.00000000       0.00000000 
2
Lattice="3.210823473442102 -7.334102757445111e-35 3.00685693011468e-34 -7.334102757445111e-35 3.210823473442102 3.679559248397694e-69 3.00685693011468e-34 7.359118496795388e-69 3.210823473442102" Properties=species:S:1:pos:R:3:Z:I:1:forces:R:3 stress="0.05833209849633817 1.2688898689093857e-52 -8.23247933912585e-52 1.2688898689093857e-52 0.05833209849633817 4.652483699167315e-19 -8.23247933912585e-52 4.652483699167315e-19 0.058332098496338164" energy=-325.089961958 Minim_Constant_Volume=T Minim_Hydrostatic_Strain=F pbc="T T T"
Si       0.00000000       0.00000000       0.00000000       14       0.00000000       0.00000000       0.00000000 
Si       1.60541174       1.60541174       1.60541174       14       0.00000000       0.00000000       0.00000000 
2
Lattice="3.234433317468911 -7.388031920356779e-35 3.0289669662839465e-34 -7.388031920356779e-35 3.234433317468911 3.7066158027865085e-69 3.0289669662839465e-34 7.413231605573017e-69 3.234433317468911" Properties=species:S:1:pos:R:3:Z:I:1:forces:R:3 stress="0.06929257182337263 9.270742927803163e-36 -1.2273059018769615e-35 9.270742927803163e-36 0.06929257182337263 1.2641588683452331e-17 -1.2273059018769615e-35 1.2641588683452331e-17 0.06929257182337266" energy=-325.043077152 Minim_Constant_Volume=T Minim_Hydrostatic_Strain=F pbc="T T T"
Si       0.00000000       0.00000000       0.00000000       14       0.00000000       0.00000000       0.00000000 
Si       1.61721666       1.61721666       1.61721666       14       0.00000000       0.00000000       0.00000000 
