2
Lattice="3.1805967450761536 1.839507008013818e-27 1.1238264832782735e-26 1.839507008013818e-27 3.1805967450761536 3.198274136629742e-19 1.1238264832782735e-26 3.198274136629742e-19 3.1805967450761536" Properties=species:S:1:pos:R:3:Z:I:1:forces:R:3 stress="-0.00016754072417889834 3.6295162687744674e-42 1.635359063387508e-25 3.6295162687744674e-42 -0.00016754072417889818 -7.936856134988494e-21 1.635359063387508e-25 -7.936856134988494e-21 -0.00016754072417889828" energy=-22.3886605437 Minim_Constant_Volume=T Minim_Hydrostatic_Strain=F pbc="T T T"
W       0.00000000       0.00000000       0.00000000       74      -0.00000000       0.00000000      -0.00000000 
W       1.59029837       1.59029837       1.59029837       74      -0.00000000      -0.00000000       0.00000000 
2
Lattice="3.153867777636984 1.824048235065804e-27 1.1143821167375217e-26 1.824048235065804e-27 3.153867777636984 3.171396612658225e-19 1.1143821167375217e-26 3.171396612658225e-19 3.153867777636984" Properties=species:S:1:pos:R:3:Z:I:1:forces:R:3 stress="-0.049040307212412496 3.464991240378185e-27 2.945242554321455e-26 3.464991240378185e-27 -0.0490403072124126 -8.390276857440359e-18 2.945242554321455e-26 -8.390276857440359e-18 -0.0490403072124126" energy=-22.3691907748 Minim_Constant_Volume=T Minim_Hydrostatic_Strain=F pbc="T T T"
W       0.00000000       0.00000000       0.00000000       74       0.00000000       0.00000000       0.00000000 
W       1.57693389       1.57693389       1.57693389       74       0.00000000       0.00000000      -0.00000000 
2
Lattice="3.126677909321665 1.8083228988091937e-27 1.1047748962884319e-26 1.8083228988091937e-27 3.126677909321665 3.144055626176403e-19 1.1047748962884319e-26 3.144055626176403e-19 3.126677909321665" Properties=species:S:1:pos:R:3:Z:I:1:forces:R:3 stress="-0.10355274954597078 -2.820413609500275e-26 1.1281654438001114e-25 -2.820413609500275e-26 -0.10355274954597082 -4.0548491280197165e-17 1.1281654438001114e-25 -4.0548491280197165e-17 -0.10355274954597082" energy=-22.3082277507 Minim_Constant_Volume=T Minim_Hydrostatic_Strain=F pbc="T T T"
W       0.00000000       0.00000000       0.00000000       74      -0.00000000       0.00000000       0.00000000 
W       1.56333895       1.56333895       1.56333895       74      -0.00000000      -0.00000000       0.00000000 
2
Lattice="3.0990067421166447 1.7923192019958967e-27 1.0949976145326213e-26 1.7923192019958967e-27 3.0990067421166447 3.1162306658009072e-19 1.0949976145326213e-26 3.1162306658009072e-19 3.0990067421166447" Properties=species:S:1:pos:R:3:Z:I:1:forces:R:3 stress="-0.16454634583108024 -1.0766271257763748e-26 7.177514171842503e-27 -1.0766271257763748e-26 -0.16454634583108046 8.737452739410692e-17 7.177514171842503e-27 8.737452739410692e-17 -0.16454634583108052" energy=-22.2008628954 Minim_Constant_Volume=T Minim_Hydrostatic_Strain=F pbc="T T T"
W       0.00000000       0.00000000       0.00000000       74       0.00000000      -0.00000000      -0.00000000 
W       1.54950337       1.54950337       1.54950337       74      -0.00000000      -0.00000000      -0.00000000 
2
Lattice="3.0708323940822444 1.7760244891450042e-27 1.0850425397438494e-26 1.7760244891450042e-27 3.0708323940822444 3.0878997279747513e-19 1.0850425397438494e-26 3.0878997279747513e-19 3.0708323940822444" Properties=species:S:1:pos:R:3:Z:I:1:forces:R:3 stress="-0.23297998638717393 -3.6549116104612136e-27 -3.654911610461213e-27 -3.6549116104612136e-27 -0.2329799863871739 -3.419932299201429e-17 -3.654911610461213e-27 -3.419932299201429e-17 -0.2329799863871739" energy=-22.0415163709 Minim_Constant_Volume=T Minim_Hydrostatic_Strain=F pbc="T T T"
W       0.00000000       0.00000000       0.00000000       74      -0.00000000       0.00000000       0.00000000 
W       1.53541620       1.53541620       1.53541620       74       0.00000000      -0.00000000      -0.00000000 
2
Lattice="3.042131346740269 1.7594251582789857e-27 1.0749013619442212e-26 1.7594251582789857e-27 3.042131346740269 3.059039163506737e-19 1.0749013619442212e-26 3.059039163506737e-19 3.042131346740269" Properties=species:S:1:pos:R:3:Z:I:1:forces:R:3 stress="-0.30994820616682867 -3.724201604027871e-27 -4.655252005034837e-27 -3.724201604027871e-27 -0.3099482061668286 8.481083883514596e-17 -4.655252005034837e-27 8.481083883514596e-17 -0.30994820616682855" energy=-21.8237625039 Minim_Constant_Volume=T Minim_Hydrostatic_Strain=F pbc="T T T"
W       0.00000000       0.00000000       0.00000000       74       0.00000000       0.00000000      -0.00000000 
W       1.52106567       1.52106567       1.52106567       74      -0.00000000      -0.00000000       0.00000000 
2
Lattice="3.206883860674088 1.8547102347157657e-27 1.1331147266633206e-26 1.8547102347157657e-27 3.206883860674088 3.224707352998218e-19 1.1331147266633206e-26 3.224707352998218e-19 3.206883860674088" Properties=species:S:1:pos:R:3:Z:I:1:forces:R:3 stress="0.04450582880326431 6.702744066987389e-27 -6.70274406698739e-27 6.702744066987389e-27 0.044505828803264376 -2.347008782156109e-17 -6.70274406698739e-27 -2.347008782156109e-17 0.044505828803264376" energy=-22.3706405547 Minim_Constant_Volume=T Minim_Hydrostatic_Strain=F pbc="T T T"
W       0.00000000       0.00000000       0.00000000       74       0.00000000       0.00000000       0.00000000 
W       1.60344193       1.60344193       1.60344193       74      -0.00000000       0.00000000       0.00000000 
2
Lattice="3.232746944192584 1.8696682212806363e-27 1.1422531432960861e-26 1.8696682212806363e-27 3.232746944192584 3.2507141805656407e-19 1.1422531432960861e-26 3.2507141805656407e-19 3.232746944192584" Properties=species:S:1:pos:R:3:Z:I:1:forces:R:3 stress="0.08450433645038005 5.771434007330604e-27 -1.6489811449516017e-27 5.771434007330604e-27 0.08450433645038011 -1.4286755027867065e-17 -1.6489811449516017e-27 -1.4286755027867065e-17 0.08450433645038014" energy=-22.3183550067 Minim_Constant_Volume=T Minim_Hydrostatic_Strain=F pbc="T T T"
W       0.00000000       0.00000000       0.00000000       74      -0.00000000      -0.00000000      -0.00000000 
W       1.61637347       1.61637347       1.61637347       74      -0.00000000      -0.00000000      -0.00000000 
2
Lattice="3.258202692625038 1.8843906244611797e-27 1.1512476328629729e-26 1.8843906244611797e-27 3.258202692625038 3.276311409125378e-19 1.1512476328629729e-26 3.276311409125378e-19 3.258202692625038" Properties=species:S:1:pos:R:3:Z:I:1:forces:R:3 stress="0.11859962075576047 -2.5973046656335494e-26 -2.5550683224623802e-42 -2.5973046656335494e-26 0.11859962075576047 -3.1218681194842694e-18 -2.5550683224623802e-42 -3.1218681194842694e-18 0.11859962075576047" energy=-22.2362743351 Minim_Constant_Volume=T Minim_Hydrostatic_Strain=F pbc="T T T"
W       0.00000000       0.00000000       0.00000000       74       0.00000000      -0.00000000       0.00000000 
W       1.62910135       1.62910135       1.62910135       74       0.00000000       0.00000000      -0.00000000 
2
Lattice="3.2832667752273577 1.8988865066153005e-27 1.1601037319114194e-26 1.8988865066153005e-27 3.2832667752273577 3.301514795021263e-19 1.1601037319114194e-26 3.301514795021263e-19 3.2832667752273577" Properties=species:S:1:pos:R:3:Z:I:1:forces:R:3 stress="0.14685290668898193 6.394502434720728e-27 3.796735820615432e-27 6.394502434720728e-27 0.14685290668898168 -3.3665324391627035e-17 3.796735820615432e-27 -3.3665324391627035e-17 0.1468529066889817" energy=-22.1291209088 Minim_Constant_Volume=T Minim_Hydrostatic_Strain=F pbc="T T T"
W       0.00000000       0.00000000       0.00000000       74       0.00000000      -0.00000000       0.00000000 
W       1.64163339       1.64163339       1.64163339       74       0.00000000      -0.00000000       0.00000000 
2
Lattice="3.307953918542224 1.9131643848800762e-27 1.168826643892224e-26 1.9131643848800762e-27 3.307953918542224 3.3263391466444106e-19 1.168826643892224e-26 3.3263391466444106e-19 3.307953918542224" Properties=species:S:1:pos:R:3:Z:I:1:forces:R:3 stress="0.16903432657186412 6.29941469006235e-27 -1.8898244070187046e-26 6.29941469006235e-27 0.16903432657186412 -3.843198609133214e-17 -1.8898244070187046e-26 -3.843198609133214e-17 0.16903432657186412" energy=-22.0015780447 Minim_Constant_Volume=T Minim_Hydrostatic_Strain=F pbc="T T T"
W       0.00000000       0.00000000       0.00000000       74      -0.00000000      -0.00000000      -0.00000000 
W       1.65397696       1.65397696       1.65397696       74       0.00000000       0.00000000       0.00000000 
2
Lattice="3.332277982668031 1.9272322752821106e-27 1.177421266108278e-26 1.9272322752821106e-27 3.332277982668031 3.3507984011260505e-19 1.177421266108278e-26 3.3507984011260505e-19 3.332277982668031" Properties=species:S:1:pos:R:3:Z:I:1:forces:R:3 stress="0.18540324450370776 -3.685872228432697e-27 -3.1038924028906924e-27 -3.685872228432697e-27 0.1854032445037079 3.429563020101574e-17 -3.1038924028906924e-27 3.429563020101574e-17 0.18540324450370785" energy=-21.8588939956 Minim_Constant_Volume=T Minim_Hydrostatic_Strain=F pbc="T T T"
W       0.00000000       0.00000000       0.00000000       74       0.00000000      -0.00000000       0.00000000 
W       1.66613899       1.66613899       1.66613899       74      -0.00000000      -0.00000000       0.00000000 
