2
Lattice="2.95 0.0 0.0 -1.4749999999999994 2.5547749411640948 0.0 0.0 0.0 4.6846000000000005" Properties=species:S:1:pos:R:3:Z:I:1:forces:R:3 energy=-12.1165995551 stress="0.10027597678615274 1.9255376353913545e-17 -1.858166782697518e-35 1.9255376353913545e-17 0.10027597678615267 -5.955308980341204e-52 -1.858166782697518e-35 -5.955308980341204e-52 0.029490395574749015" pbc="T T T"
Ti       0.00000000       0.00000000       0.00000000       22       0.00000000      -0.00000000      -0.00000000 
Ti       0.00000000       1.70318329       2.34230000       22       0.00000000       0.00000000       0.00000000 
2
Lattice="2.8621460025908045 -1.6870060392604525e-17 1.6279809476311588e-35 -1.4310730012954016 2.478691147583719 -8.13990473815579e-36 2.5852337448382804e-35 8.285513378172765e-52 4.643570547478094" Properties=species:S:1:pos:R:3:Z:I:1:forces:R:3 energy=-12.2481950626 stress="0.013865865986809148 1.9265545641249007e-18 -3.574470510906419e-35 1.9265545641249007e-18 0.013865865986809136 1.6396863849295137e-34 -3.574470510906419e-35 1.6396863849295137e-34 -0.048193742721413725" pbc="T T T"
Ti       0.00000000      -0.00000000       0.00000000       22       0.00000000      -0.00000000       0.00000000 
Ti       0.00000000       1.65246077       2.32178527       22      -0.00000000      -0.00000000      -0.00000000 
2
Lattice="2.75881904989044 -3.3298058919326354e-17 2.0709181674468723e-34 -1.3794095249452196 2.3892073816495705 -8.443189157453572e-34 3.254439514875411e-34 -1.3295211470473028e-33 5.019869633104532" Properties=species:S:1:pos:R:3:Z:I:1:forces:R:3 energy=-12.3268070684 stress="0.0004713519935330095 2.4087718403156394e-19 -1.5797066710917357e-35 2.4087718403156394e-19 0.0004713519935330093 -3.8426440935092396e-34 -1.5797066710917357e-35 -3.8426440935092396e-34 0.007019668906820741" pbc="T T T"
Ti       0.00000000      -0.00000000       0.00000000       22       0.00000000      -0.00000000       0.00000000 
Ti       0.00000000       1.59280492       2.50993482       22      -0.00000000       0.00000000      -0.00000000 
2
Lattice="2.766708283669468 -3.398651544318876e-17 6.6418987592640985e-34 -1.3833541418347333 2.396039658518603 6.454624767267751e-33 9.581453469483128e-34 1.070983343265218e-32 4.984282753009908" Properties=species:S:1:pos:R:3:Z:I:1:forces:R:3 energy=-12.3278371522 stress="0.004203266429952161 1.3289781357005998e-18 -4.412323971909033e-35 1.3289781357005998e-18 0.004203266429952158 -5.925395163899642e-35 -4.412323971909033e-35 -5.925395163899642e-35 0.005230619558348434" pbc="T T T"
Ti      -0.00000000      -0.00000000       0.00000000       22      -0.00000000       0.00000000      -0.00000000 
Ti       0.00000000       1.59735977       2.49214138       22       0.00000000      -0.00000000      -0.00000000 
2
Lattice="2.767061041947788 -4.320190765473936e-17 1.5360064293624399e-33 -1.3835305209738933 2.396345156149023 8.682114915493775e-33 2.180147668298827e-33 1.4973749067677054e-32 4.969735636982708" Properties=species:S:1:pos:R:3:Z:I:1:forces:R:3 energy=-12.3281098428 stress="0.0005243657008118594 -3.0971930971580907e-19 -3.384823377917357e-35 -3.0971930971580907e-19 0.0005243657008118589 2.9099869598884713e-35 -3.384823377917357e-35 2.9099869598884713e-35 0.0007035441873645178" pbc="T T T"
Ti      -0.00000000      -0.00000000       0.00000000       22      -0.00000000      -0.00000000      -0.00000000 
Ti       0.00000000       1.59756344       2.48486782       22       0.00000000       0.00000000       0.00000000 
