2
Lattice="2.767061041947788 -4.320190765473936e-17 1.5360064293624399e-33 -1.3835305209738933 2.396345156149023 8.682114915493775e-33 2.180147668298827e-33 1.4973749067677054e-32 4.969735636982708" Properties=species:S:1:pos:R:3:Z:I:1:forces:R:3 stress="0.0005243657008089055 -1.970303844223671e-19 -3.059441600708623e-31 -1.970303844223671e-19 0.0005243657008089043 1.766465007566211e-31 -3.059441600708623e-31 1.766465007566211e-31 0.0007035441873660142" energy=-12.3281098428 Minim_Constant_Volume=T Minim_Hydrostatic_Strain=F pbc="T T T"
Ti      -0.00000000      -0.00000000       0.00000000       22      -0.00000000       0.00000000      -0.00000000 
Ti       0.00000000       1.59756344       2.48486782       22       0.00000000      -0.00000000       0.00000000 
2
Lattice="2.752848096301332 -5.849554331518626e-17 2.3105368257034132e-33 -1.3764240481506653 2.3840363841565844 1.047753693717272e-32 3.6012429378616715e-33 1.9716238733640857e-32 4.8954961267746215" Properties=species:S:1:pos:R:3:Z:I:1:forces:R:3 stress="-0.056844252292861094 3.444802114276981e-18 -3.9229127623160873e-32 3.444802114276981e-18 -0.056844252292861094 -1.1299715918678585e-31 -3.9229127623160873e-32 -1.1299715918678585e-31 -0.056728007879029874" energy=-12.3063852733 Minim_Constant_Volume=T Minim_Hydrostatic_Strain=F pbc="T T T"
Ti      -0.00000000      -0.00000000       0.00000000       22      -0.00000000       0.00000000      -0.00000000 
Ti       0.00000000       1.58935759       2.44774806       22       0.00000000      -0.00000000       0.00000000 
2
Lattice="2.742184978814942 -9.079262514530202e-17 3.813012658769185e-33 -1.3710924894074703 2.3748018535298323 1.1671151594277204e-32 6.333510147075405e-33 2.4065502635941096e-32 4.806965860391266" Properties=species:S:1:pos:R:3:Z:I:1:forces:R:3 stress="-0.10973233166778885 3.957929288365641e-17 2.0162899584592592e-32 3.957929288365641e-17 -0.10973233166778881 -1.0579634800014754e-32 2.0162899584592592e-32 -1.0579634800014754e-32 -0.10972826240771413" energy=-12.2354757292 Minim_Constant_Volume=T Minim_Hydrostatic_Strain=F pbc="T T T"
Ti      -0.00000000      -0.00000000       0.00000000       22      -0.00000000       0.00000000      -0.00000000 
Ti       0.00000000       1.58320124       2.40348293       22       0.00000000      -0.00000000       0.00000000 
2
Lattice="2.744635252559873 -1.554925481987807e-16 7.3428944814774606e-31 -1.372317626279936 2.3769238528391687 1.1049003815923376e-30 1.287030829036109e-30 2.9770273813943625e-30 4.671077453243093" Properties=species:S:1:pos:R:3:Z:I:1:forces:R:3 stress="-0.1355289457688758 3.279997017204254e-17 2.368457417389238e-31 3.279997017204254e-17 -0.13552894576887575 7.363194433910059e-31 2.368457417389238e-31 7.363194433910059e-31 -0.13534182661981387" energy=-12.1321124832 Minim_Constant_Volume=T Minim_Hydrostatic_Strain=F pbc="T T T"
Ti      -0.00000000      -0.00000000       0.00000000       22       0.00000000       0.00000000       0.00000000 
Ti       0.00000000       1.58461590       2.33553873       22      -0.00000000      -0.00000000      -0.00000000 
2
Lattice="2.741347524907163 -4.465785190599224e-16 -3.673660234293817e-31 -1.370673762453581 2.374076597171197 -2.803688774350287e-31 -5.586809010465378e-31 -7.6017661030742435e-31 4.556212720899497" Properties=species:S:1:pos:R:3:Z:I:1:forces:R:3 stress="-0.1601660644150326 3.4293052743444636e-17 -2.9678125045371493e-33 3.4293052743444636e-17 -0.1601660644150325 -1.4243677980055141e-31 -2.9678125045371493e-33 -1.4243677980055141e-31 -0.16007998329557052" energy=-12.0122445233 Minim_Constant_Volume=T Minim_Hydrostatic_Strain=F pbc="T T T"
Ti      -0.00000000      -0.00000000      -0.00000000       22      -0.00000000       0.00000000       0.00000000 
Ti      -0.00000000       1.58271773       2.27810636       22       0.00000000      -0.00000000      -0.00000000 
2
Lattice="2.802562394633861 -5.654956243068849e-17 -3.1802741805352375e-31 -1.4012811973169297 2.427090229443872 -5.312375282139664e-31 -5.334294284697671e-31 -1.2758426939704862e-30 4.2258214128331275" Properties=species:S:1:pos:R:3:Z:I:1:forces:R:3 stress="-0.13860092361112594 2.907998584875633e-17 -5.122179870929386e-32 2.907998584875633e-17 -0.138600923611126 3.79537071431207e-31 -5.122179870929386e-32 3.79537071431207e-31 -0.13856381818349275" energy=-11.9747491629 Minim_Constant_Volume=T Minim_Hydrostatic_Strain=F pbc="T T T"
Ti      -0.00000000      -0.00000000      -0.00000000       22      -0.00000000       0.00000000      -0.00000000 
Ti       0.00000000       1.61806015       2.11291071       22      -0.00000000       0.00000000      -0.00000000 
2
Lattice="2.743448747611316 2.6380062793381485e-17 7.794353908402071e-34 -1.3717243738056573 2.375896309412003 8.257032298663496e-33 6.872330799011223e-34 1.2359468906759006e-32 5.177774776603785" Properties=species:S:1:pos:R:3:Z:I:1:forces:R:3 stress="-0.00024873243199875 -4.043373426025447e-20 -2.2509286793527168e-36 -4.043373426025447e-20 -0.00024873243199874997 -8.550575457734491e-32 -2.2509286793527168e-36 -8.550575457734491e-32 -0.00025564243066618884" energy=-12.3261154041 Minim_Constant_Volume=T Minim_Hydrostatic_Strain=F pbc="T T T"
Ti      -0.00000000      -0.00000000       0.00000000       22      -0.00000000       0.00000000       0.00000000 
Ti       0.00000000       1.58393087       2.58888739       22       0.00000000       0.00000000      -0.00000000 
2
Lattice="2.7637413779781257 7.513463567626754e-17 -1.2723884722333314e-34 -1.3818706889890622 2.3934702428192685 6.970155320526872e-33 -1.0339222647458862e-33 8.465649114213378e-33 5.230751895202764" Properties=species:S:1:pos:R:3:Z:I:1:forces:R:3 stress="0.04182215371875878 -3.213608941509054e-17 5.198685326504549e-34 -3.213608941509054e-17 0.04182215371875872 1.2832551130851842e-33 5.198685326504549e-34 1.2832551130851842e-33 0.0417183018326911" energy=-12.3077779855 Minim_Constant_Volume=T Minim_Hydrostatic_Strain=F pbc="T T T"
Ti      -0.00000000      -0.00000000       0.00000000       22      -0.00000000       0.00000000       0.00000000 
Ti      -0.00000000       1.59564683       2.61537595       22       0.00000000      -0.00000000      -0.00000000 
2
Lattice="2.7940767241332636 1.7811453543847455e-16 -3.754155845790723e-33 -1.3970383620666311 2.4197414232222125 7.363262576520751e-34 -7.909295566467818e-33 -9.053437386418258e-33 5.239504495586835" Properties=species:S:1:pos:R:3:Z:I:1:forces:R:3 stress="0.06559909959963345 -1.8139342544150066e-17 1.673468023051865e-33 -1.8139342544150066e-17 0.06559909959963338 4.435426691506325e-33 1.673468023051865e-33 4.435426691506325e-33 0.06543371596821783" energy=-12.2616325931 Minim_Constant_Volume=T Minim_Hydrostatic_Strain=F pbc="T T T"
Ti      -0.00000000      -0.00000000       0.00000000       22       0.00000000       0.00000000       0.00000000 
Ti      -0.00000000       1.61316095       2.61975225       22      -0.00000000      -0.00000000       0.00000000 
2
Lattice="2.8331088868765457 2.102749777340405e-16 -1.946765054282914e-31 -1.4165544434382722 2.453544267722543 2.3267957449301803e-31 -3.6607493800975356e-31 2.863349514633757e-31 5.214183469588542" Properties=species:S:1:pos:R:3:Z:I:1:forces:R:3 stress="0.07171391277212667 -2.085433839045248e-17 1.7930302194985955e-31 -2.085433839045248e-17 0.0717139127721266 3.1654449863872137e-31 1.7930302194985955e-31 3.1654449863872137e-31 0.07160355843445784" energy=-12.20739231 Minim_Constant_Volume=T Minim_Hydrostatic_Strain=F pbc="T T T"
Ti      -0.00000000      -0.00000000       0.00000000       22       0.00000000      -0.00000000      -0.00000000 
Ti      -0.00000000       1.63569618       2.60709173       22      -0.00000000       0.00000000       0.00000000 
2
Lattice="2.8640319573815733 2.506448191552614e-16 -6.280196744071109e-31 -1.432015978690786 2.4803244323429143 -4.8692483587655845e-32 -1.1673125278451406e-30 -7.692070608061856e-31 5.21858879421982" Properties=species:S:1:pos:R:3:Z:I:1:forces:R:3 stress="0.08039505691909071 -5.8182596548798524e-18 2.922597215872843e-31 -5.8182596548798524e-18 0.0803950569190907 7.238872283390714e-31 2.922597215872843e-31 7.238872283390714e-31 0.08032807096159914" energy=-12.1445042475 Minim_Constant_Volume=T Minim_Hydrostatic_Strain=F pbc="T T T"
Ti      -0.00000000      -0.00000000       0.00000000       22      -0.00000000       0.00000000      -0.00000000 
Ti      -0.00000000       1.65354962       2.60929440       22      -0.00000000      -0.00000000       0.00000000 
2
Lattice="2.890942458344897 1.1742634988527917e-16 -1.815190177525871e-30 -1.445471229172448 2.503629609805719 -2.0967824920187327e-30 -3.3376613544100704e-30 -6.331985364387962e-30 5.235816361766332" Properties=species:S:1:pos:R:3:Z:I:1:forces:R:3 stress="0.08651392704406803 -2.295974889239459e-17 1.1587092947008219e-31 -2.295974889239459e-17 0.08651392704406785 1.5909878200152514e-30 1.1587092947008219e-31 1.5909878200152514e-30 0.08650051654441447" energy=-12.074432399 Minim_Constant_Volume=T Minim_Hydrostatic_Strain=F pbc="T T T"
Ti      -0.00000000      -0.00000000       0.00000000       22      -0.00000000       0.00000000       0.00000000 
Ti      -0.00000000       1.66908641       2.61790818       22       0.00000000      -0.00000000      -0.00000000 
