2
Lattice="2.875124843555991 -9.470687698790987e-17 4.196983116329516e-34 -1.4375624217779948 2.489931153571248 -2.241823376244176e-33 1.6931906297523085e-33 -3.5069560997448414e-33 3.999377242363765" Properties=species:S:1:pos:R:3:Z:I:1:forces:R:3 stress="0.00037837610416781054 2.663408247278173e-65 -2.8586936579845065e-33 2.663408247278173e-65 0.0003783761041678101 -4.9508104305644376e-33 -2.8586936579845065e-33 -4.9508104305644376e-33 5.70243537076026e-06" energy=-325.690424706 Minim_Constant_Volume=T Minim_Hydrostatic_Strain=F pbc="T T T"
Si       0.00000000       0.00000000      -0.00000000       14      -0.00000000       0.00000000       0.00000000 
Si       0.00000000       1.65995410       1.99968862       14      -0.00000000       0.00000000      -0.00000000 
2
Lattice="2.856689824174599 -1.0329626458191487e-16 -3.4749558775666903e-35 -1.4283449120872989 2.4739659584677045 -2.76828463601275e-33 1.057416600287531e-33 -4.735484282023066e-33 3.9498350706404626" Properties=species:S:1:pos:R:3:Z:I:1:forces:R:3 stress="-0.08647683458395478 -6.938893903907228e-18 3.140136816892287e-34 -6.938893903907228e-18 -0.08647683458395478 7.36779238431801e-33 3.140136816892287e-34 7.36779238431801e-33 -0.08760596796588553" energy=-325.659636102 Minim_Constant_Volume=T Minim_Hydrostatic_Strain=F pbc="T T T"
Si       0.00000000       0.00000000      -0.00000000       14      -0.00000000       0.00000000      -0.00000000 
Si       0.00000000       1.64931064       1.97491754       14       0.00000000      -0.00000000       0.00000000 
2
Lattice="2.8478155335395763 -1.0297537532552629e-16 -8.68075178984772e-34 -1.4239077667697875 2.466280597337208 8.990378165580481e-33 -9.901908150965882e-35 1.330006886633523e-32 3.8722668251999406" Properties=species:S:1:pos:R:3:Z:I:1:forces:R:3 stress="-0.16304827741768305 -2.340324795945836e-65 -1.1839684720351395e-33 -2.340324795945836e-65 -0.16304827741768313 -2.006132339214849e-34 -1.1839684720351395e-33 -2.006132339214849e-34 -0.16305206082021853" energy=-325.567770352 Minim_Constant_Volume=T Minim_Hydrostatic_Strain=F pbc="T T T"
Si      -0.00000000       0.00000000       0.00000000       14      -0.00000000       0.00000000       0.00000000 
Si       0.00000000       1.64418706       1.93613341       14       0.00000000      -0.00000000      -0.00000000 
2
Lattice="2.8646497581860433 -4.547979201437616e-17 2.9515475660114018e-33 -1.432324879093021 2.4808594635340633 1.2437689968721534e-32 5.048875823667099e-33 2.2304086143997126e-32 3.724034900259671" Properties=species:S:1:pos:R:3:Z:I:1:forces:R:3 stress="-0.1691841192222105 2.7755575615628914e-17 -7.093719187049056e-34 2.7755575615628914e-17 -0.1691841192222103 2.3072440723671798e-33 -7.093719187049056e-34 2.3072440723671798e-33 -0.1693809566378661" energy=-325.44067733 Minim_Constant_Volume=T Minim_Hydrostatic_Strain=F pbc="T T T"
Si       0.00000000       0.00000000       0.00000000       14       0.00000000      -0.00000000      -0.00000000 
Si       0.00000000       1.65390631       1.86201745       14       0.00000000      -0.00000000      -0.00000000 
2
Lattice="2.8697772203722054 -1.6268881054266492e-16 8.208449371834093e-33 -1.434888610186102 2.485299976044224 -5.012056778138344e-34 1.200770890978615e-32 7.497480335033616e-33 3.611603777942997" Properties=species:S:1:pos:R:3:Z:I:1:forces:R:3 stress="-0.18146465708921647 -4.163644844296942e-65 2.447138524406851e-33 -4.163644844296942e-65 -0.18146465708921622 4.466476273665448e-33 2.447138524406851e-33 4.466476273665448e-33 -0.18110962808346204" energy=-325.320360088 Minim_Constant_Volume=T Minim_Hydrostatic_Strain=F pbc="T T T"
Si       0.00000000       0.00000000       0.00000000       14       0.00000000       0.00000000       0.00000000 
Si       0.00000000       1.65686665       1.80580189       14       0.00000000       0.00000000       0.00000000 
2
Lattice="2.8541040373544564 -2.599221121487159e-16 2.586909936482555e-33 -1.4270520186772275 2.471726601392691 -3.6716251794415197e-34 5.04067967823611e-33 3.654554868460979e-33 3.5510381001824194" Properties=species:S:1:pos:R:3:Z:I:1:forces:R:3 stress="-0.22883802263422007 -5.551115123125783e-17 7.593897662104448e-33 -5.551115123125783e-17 -0.2288380226342196 -1.7624138818805764e-33 7.593897662104448e-33 -1.7624138818805764e-33 -0.22877382614840314" energy=-325.176185305 Minim_Constant_Volume=T Minim_Hydrostatic_Strain=F pbc="T T T"
Si       0.00000000      -0.00000000       0.00000000       14      -0.00000000      -0.00000000      -0.00000000 
Si       0.00000000       1.64781773       1.77551905       14       0.00000000       0.00000000       0.00000000 
2
Lattice="2.9010261780780877 4.552437678556096e-17 -5.015011558851454e-34 -1.450513089039043 2.5123623672593025 -1.389493293517362e-33 4.2307407574291075e-34 -2.8872256539467842e-33 4.026480924151959" Properties=species:S:1:pos:R:3:Z:I:1:forces:R:3 stress="0.06990714328310749 -2.0816681711721685e-17 1.309959974478316e-33 -2.0816681711721685e-17 0.06990714328310747 3.863584391530203e-33 1.309959974478316e-33 3.863584391530203e-33 0.0697101795676159" energy=-325.663604769 Minim_Constant_Volume=T Minim_Hydrostatic_Strain=F pbc="T T T"
Si       0.00000000       0.00000000      -0.00000000       14      -0.00000000       0.00000000      -0.00000000 
Si       0.00000000       1.67490824       2.01324046       14      -0.00000000       0.00000000       0.00000000 
2
Lattice="2.934183711166572 2.1195471305507886e-16 1.7923834402752076e-35 -1.4670918555832848 2.5410776332407528 7.568416588997292e-33 1.1497765228509194e-33 1.1856071024244894e-32 4.03186459099838" Properties=species:S:1:pos:R:3:Z:I:1:forces:R:3 stress="0.11587146917361216 -9.71445146547012e-17 -3.30466366028415e-34 -9.71445146547012e-17 0.11587146917361218 -1.4260411824524675e-34 -3.30466366028415e-34 -1.4260411824524675e-34 0.11702077206253952" energy=-325.595956429 Minim_Constant_Volume=T Minim_Hydrostatic_Strain=F pbc="T T T"
Si       0.00000000       0.00000000      -0.00000000       14      -0.00000000       0.00000000       0.00000000 
Si       0.00000000       1.69405176       2.01593230       14       0.00000000      -0.00000000      -0.00000000 
2
Lattice="2.980882693149305 1.4687187140282395e-15 6.488255673660301e-33 -1.4904413465746502 2.5815201379686705 1.22607160623075e-32 1.0059166159960746e-32 2.4721355419158893e-32 3.998907256428821" Properties=species:S:1:pos:R:3:Z:I:1:forces:R:3 stress="0.1376381360726448 -2.220446049250313e-16 -2.928301937821691e-35 -2.220446049250313e-16 0.13763813607264472 -2.2856040939926135e-33 -2.928301937821691e-35 -2.2856040939926135e-33 0.13827245818257014" energy=-325.504426078 Minim_Constant_Volume=T Minim_Hydrostatic_Strain=F pbc="T T T"
Si       0.00000000       0.00000000      -0.00000000       14       0.00000000      -0.00000000       0.00000000 
Si       0.00000000       1.72101343       1.99945363       14      -0.00000000      -0.00000000      -0.00000000 
2
Lattice="3.0419725209087853 2.6472903087199493e-15 -1.271090333300325e-32 -1.5209862604543896 2.634425480721196 1.2967890910649673e-31 -1.5336485971558304e-32 1.9267008355539575e-31 3.9280586888018436" Properties=species:S:1:pos:R:3:Z:I:1:forces:R:3 stress="0.12929598330002098 -2.636779683484747e-16 1.5278248314774486e-32 -2.636779683484747e-16 0.1292959833000209 2.7916625350485255e-32 1.5278248314774486e-32 2.7916625350485255e-32 0.1289960664344515" energy=-325.407517359 Minim_Constant_Volume=T Minim_Hydrostatic_Strain=F pbc="T T T"
Si       0.00000000      -0.00000000      -0.00000000       14      -0.00000000       0.00000000       0.00000000 
Si       0.00000000       1.75628365       1.96402934       14       0.00000000      -0.00000000      -0.00000000 
2
Lattice="3.17580301590596 7.083122740032781e-15 -1.7923114231643926e-31 -1.5879015079529728 2.7503260891897914 -1.0106031032309742e-31 -2.3210255024635006e-31 -2.5509983484553246e-31 3.6729509442790316" Properties=species:S:1:pos:R:3:Z:I:1:forces:R:3 stress="0.03546616927067307 -1.6306400674181987e-16 5.980937124110824e-33 -1.6306400674181987e-16 0.0354661692706731 8.284594486039056e-33 5.980937124110824e-33 8.284594486039056e-33 0.035767622113211175" energy=-325.350266339 Minim_Constant_Volume=T Minim_Hydrostatic_Strain=F pbc="T T T"
Si       0.00000000      -0.00000000      -0.00000000       14      -0.00000000       0.00000000       0.00000000 
Si       0.00000000       1.83355073       1.83647547       14       0.00000000      -0.00000000      -0.00000000 
2
Lattice="3.2680585064141443 8.459062977326485e-15 -2.2714516609773453e-31 -1.634029253207064 2.8302216876084727 -1.7724528720082975e-31 -3.0089488945913756e-31 -4.043969884536752e-31 3.555380277943049" Properties=species:S:1:pos:R:3:Z:I:1:forces:R:3 stress="0.010410802346310815 -5.811323644522304e-17 1.7194600516566634e-33 -5.811323644522304e-17 0.010410802346310822 9.629794456800279e-34 1.7194600516566634e-33 9.629794456800279e-34 0.01029877320491888" energy=-325.337868351 Minim_Constant_Volume=T Minim_Hydrostatic_Strain=F pbc="T T T"
Si      -0.00000000       0.00000000      -0.00000000       14      -0.00000000       0.00000000       0.00000000 
Si       0.00000000       1.88681446       1.77769014       14      -0.00000000       0.00000000      -0.00000000 
