12
Lattice="5.753695825489497 0.0 0.0 0.0 5.753695825489497 0.0 0.0 0.0 7.249656744495459" Properties=species:S:1:pos:R:3:Z:I:1:forces:R:3 stress="0.035520847081700696 0.0 -2.47882585279802e-27 0.0 0.03552084708170069 -2.47882585279802e-27 -2.47882585279802e-27 -2.47882585279802e-27 0.09023544809395752" cutoff=-1.0 energy=-1953.64806196 nneightol=1.2 pbc="T T T"
Si       0.48848877       0.48848877       0.00000000       14       0.56975183       0.56975183       0.00000000 
Si      -0.48848877      -0.48848877       3.62482838       14      -0.56975183      -0.56975183      -0.00000000 
Si       2.38835913       3.36533669       5.43724256       14      -0.56975183       0.56975183       0.00000000 
Si       3.36533669       2.38835913       1.81241418       14       0.56975183      -0.56975183      -0.00000000 
Si       0.69504645       3.88489542       0.17544169       14       0.35045681      -0.60650214      -1.20675512 
Si       1.00804751       2.18180145       1.98785588       14      -0.60650214      -0.35045681      -1.20675512 
Si       1.86880040       5.05864937       3.44938668       14       0.60650214      -0.35045681       1.20675512 
Si       2.18180145       1.00804751       5.26180087       14      -0.35045681      -0.60650214       1.20675512 
Si       3.57189437       4.74564832       1.63697249       14       0.35045681       0.60650214       1.20675512 
Si       3.88489542       0.69504645      -0.17544169       14      -0.60650214       0.35045681       1.20675512 
Si       4.74564832       3.57189437       5.61268425       14       0.60650214       0.35045681      -1.20675512 
Si       5.05864937       1.86880040       3.80027006       14      -0.35045681       0.60650214      -1.20675512 
12
Lattice="5.600761037293162 0.0 1.067256943229161e-26 0.0 5.600761037293162 1.067256943229161e-26 1.3447437492809497e-26 1.3447437492809497e-26 6.760136455480617" Properties=species:S:1:pos:R:3:Z:I:1:forces:R:3 stress="-0.013682537687453613 -1.9785579397242078e-54 -9.161377494307082e-29 -1.9785579397242078e-54 -0.013682537687453613 -6.400577185304359e-28 -9.161377494307082e-29 -6.400577185304359e-28 -0.04100439589406672" cutoff=-1.0 energy=-1955.41727859 nneightol=1.2 pbc="T T T"
Si       0.55091431       0.55091431      -0.00000000       14      -1.35237996      -1.35237996       0.00000000 
Si      -0.55091431      -0.55091431       3.38006823       14       1.35237996       1.35237996       0.00000000 
Si       2.24946620       3.35129484       5.07010234       14       1.35237996      -1.35237996      -0.00000000 
Si       3.35129484       2.24946620       1.69003411       14      -1.35237996       1.35237996       0.00000000 
Si       0.73671653       3.71272032      -0.02126947       14      -0.42502507       0.75142256       0.36242803 
Si       0.91233980       2.06366398       1.66876464       14       0.75142256       0.42502507       0.36242803 
Si       1.88804071       4.86404450       3.40133770       14      -0.75142256       0.42502507      -0.36242803 
Si       2.06366398       0.91233980       5.09137181       14       0.42502507       0.75142256      -0.36242803 
Si       3.53709706       4.68842124       1.71130358       14      -0.42502507      -0.75142256      -0.36242803 
Si       3.71272032       0.73671653       0.02126947       14       0.75142256      -0.42502507      -0.36242803 
Si       4.68842124       3.53709706       5.04883288       14      -0.75142256      -0.42502507       0.36242803 
Si       4.86404450       1.88804071       3.35879876       14       0.42502507      -0.75142256       0.36242803 
12
Lattice="5.6162343307123 4.152928365866662e-54 1.4884729306013612e-26 1.0136468074343754e-53 5.6162343307123 1.789270349720957e-26 1.9158140674532107e-26 2.3114600656774555e-26 6.86526870468118" Properties=species:S:1:pos:R:3:Z:I:1:forces:R:3 stress="-0.0035399828705887405 4.3688567707388304e-73 8.607751570771074e-29 4.3688567707388304e-73 -0.0035399828705887405 7.860340979412552e-19 8.607751570771074e-29 7.860340979412552e-19 0.0182737689225201" cutoff=-1.0 energy=-1955.74831171 nneightol=1.2 pbc="T T T"
Si       0.50593882       0.50593882      -0.00000000       14      -0.11203692      -0.11203692      -0.00000000 
Si      -0.50593882      -0.50593882       3.43263436       14       0.11203692       0.11203692       0.00000000 
Si       2.30217834       3.31405599       5.14895153       14       0.11203692      -0.11203692      -0.00000000 
Si       3.31405599       2.30217834       1.71631717       14      -0.11203692       0.11203692      -0.00000000 
Si       0.70918386       3.75537820       0.05413295       14       0.19749577       0.00860768      -0.57817951 
Si       0.94726103       2.09893330       1.77045012       14       0.00860768      -0.19749577      -0.57817951 
Si       1.86085613       4.90705047       3.37850141       14      -0.00860768      -0.19749577       0.57817951 
Si       2.09893330       0.94726103       5.09481858       14      -0.19749577       0.00860768       0.57817951 
Si       3.51730103       4.66897330       1.66218422       14       0.19749577      -0.00860768       0.57817951 
Si       3.75537820       0.70918386      -0.05413295       14       0.00860768       0.19749577       0.57817951 
Si       4.66897330       3.51730103       5.20308448       14      -0.00860768       0.19749577      -0.57817951 
Si       4.90705047       1.86085613       3.48676730       14      -0.19749577      -0.00860768      -0.57817951 
12
Lattice="5.6646226825273684 1.4382290541512065e-44 1.4224299672195552e-26 1.4767719660383002e-53 5.6646226825273684 -5.153855504048225e-18 1.790405670272385e-26 -6.693619311575995e-18 6.804183318232627" Properties=species:S:1:pos:R:3:Z:I:1:forces:R:3 stress="0.003967299166970354 6.3821413162742726e-46 -2.3928813895681477e-30 6.3821413162742726e-46 0.003967299166970354 -5.652767305217219e-19 -2.3928813895681477e-30 -5.652767305217219e-19 0.0021194143178437054" cutoff=-1.0 energy=-1955.92906913 nneightol=1.2 pbc="T T T"
Si       0.50522470       0.50522470      -0.00000000       14      -0.31566481      -0.31566481       0.00000000 
Si      -0.50522470      -0.50522470       3.40209166       14       0.31566481       0.31566481      -0.00000000 
Si       2.32708664       3.33753604       5.10313749       14       0.31566481      -0.31566481       0.00000000 
Si       3.33753604       2.32708664       1.70104583       14      -0.31566481       0.31566481      -0.00000000 
Si       0.72500988       3.78266033       0.01328134       14       0.03667595       0.13476220      -0.31910018 
Si       0.95034898       2.10730146       1.71432716       14       0.13476220      -0.03667595      -0.31910018 
Si       1.88196236       4.93961280       3.38881033       14      -0.13476220      -0.03667595       0.31910018 
Si       2.10730146       0.95034898       5.08985615       14      -0.03667595       0.13476220       0.31910018 
Si       3.55732123       4.71427370       1.68776449       14       0.03667595      -0.13476220       0.31910018 
Si       3.78266033       0.72500988      -0.01328134       14       0.13476220       0.03667595       0.31910018 
Si       4.71427370       3.55732123       5.11641883       14      -0.13476220       0.03667595      -0.31910018 
Si       4.93961280       1.88196236       3.41537299       14      -0.03667595      -0.13476220      -0.31910018 
12
Lattice="5.6458622752644585 -7.760352011071856e-45 1.395276677788449e-26 -8.500977339018763e-45 5.6458622752644585 8.808281454013108e-20 1.7502244255448578e-26 2.6496573525098264e-19 6.783056825650428" Properties=species:S:1:pos:R:3:Z:I:1:forces:R:3 stress="-0.007559786599573524 -5.0278610312972854e-54 -3.3450463027024427e-29 -5.0278610312972854e-54 -0.0075597865995735225 -1.3499715903082055e-27 -3.3450463027024427e-29 -1.3499715903082055e-27 -0.014218830304346088" cutoff=-1.0 energy=-1956.02901563 nneightol=1.2 pbc="T T T"
Si       0.48360392       0.48360392      -0.00000000       14      -0.29684799      -0.29684799      -0.00000000 
Si      -0.48360392      -0.48360392       3.39152842       14       0.29684799       0.29684799       0.00000000 
Si       2.33932721       3.30653507       5.08729262       14       0.29684799      -0.29684799      -0.00000000 
Si       3.30653507       2.33932721       1.69576420       14      -0.29684799       0.29684799       0.00000000 
Si       0.73204721       3.76837614      -0.04091287       14      -0.11940687       0.03684904       0.03892983 
Si       0.94544499       2.09088392       1.65485133       14       0.03684904       0.11940687       0.03892983 
Si       1.87748614       4.91381506       3.43244129       14      -0.03684904       0.11940687      -0.03892983 
Si       2.09088392       0.94544499       5.12820549       14       0.11940687       0.03684904      -0.03892983 
Si       3.55497836       4.70041728       1.73667707       14      -0.11940687      -0.03684904      -0.03892983 
Si       3.76837614       0.73204721       0.04091287       14       0.03684904      -0.11940687      -0.03892983 
Si       4.70041728       3.55497836       5.04637975       14      -0.03684904      -0.11940687       0.03892983 
Si       4.91381506       1.87748614       3.35061554       14       0.11940687      -0.03684904       0.03892983 
12
Lattice="5.689062122569233 -1.1044104967822849e-44 1.5167466421105e-26 -1.1224622847502066e-44 5.689062122569233 4.066734529852679e-19 1.9058715881648188e-26 7.3350589371293335e-19 6.820883619757346" Properties=species:S:1:pos:R:3:Z:I:1:forces:R:3 stress="0.003541612967111955 7.260459568653066e-45 -2.7272435446579325e-29 7.260459568653066e-45 0.0035416129671119543 1.1517312248565339e-18 -2.7272435446579325e-29 1.1517312248565339e-18 -0.004326243426424964" cutoff=-1.0 energy=-1956.06794784 nneightol=1.2 pbc="T T T"
Si       0.47181461       0.47181461      -0.00000000       14      -0.18079638      -0.18079638      -0.00000000 
Si      -0.47181461      -0.47181461       3.41044181       14       0.18079638       0.18079638       0.00000000 
Si       2.37271645       3.31634568       5.11566272       14       0.18079638      -0.18079638      -0.00000000 
Si       3.31634568       2.37271645       1.70522090       14      -0.18079638       0.18079638       0.00000000 
Si       0.73812827       3.79529814      -0.06107311       14      -0.12146691      -0.02074945       0.05866045 
Si       0.95076707       2.10640279       1.64414779       14      -0.02074945       0.12146691       0.05866045 
Si       1.89376398       4.95093385       3.47151493       14       0.02074945       0.12146691      -0.05866045 
Si       2.10640279       0.95076707       5.17673583       14       0.12146691      -0.02074945      -0.05866045 
Si       3.58265934       4.73829505       1.76629401       14      -0.12146691       0.02074945      -0.05866045 
Si       3.79529814       0.73812827       0.06107311       14      -0.02074945      -0.12146691      -0.05866045 
Si       4.73829505       3.58265934       5.05458961       14       0.02074945      -0.12146691       0.05866045 
Si       4.95093385       1.89376398       3.34936869       14       0.12146691       0.02074945       0.05866045 
12
Lattice="5.679494862913217 -4.34376683200875e-44 1.564810250811266e-26 -8.204411412847177e-44 5.679494862913217 -1.3355074325335443e-17 1.9783786323797615e-26 -1.7420830682539403e-17 6.837650353315762" Properties=species:S:1:pos:R:3:Z:I:1:forces:R:3 stress="0.000884981335910459 5.582910218707655e-54 -4.8736415143160775e-30 5.582910218707655e-54 0.000884981335910459 1.3312627003363548e-27 -4.8736415143160775e-30 1.3312627003363548e-27 -0.0005515592852164172" cutoff=-1.0 energy=-1956.08399807 nneightol=1.2 pbc="T T T"
Si       0.45933684       0.45933684      -0.00000000       14      -0.01239816      -0.01239816       0.00000000 
Si      -0.45933684      -0.45933684       3.41882518       14       0.01239816       0.01239816      -0.00000000 
Si       2.38041058       3.29908428       5.12823777       14       0.01239816      -0.01239816       0.00000000 
Si       3.29908428       2.38041058       1.70941259       14      -0.01239816       0.01239816      -0.00000000 
Si       0.73174011       3.78561321      -0.06264095       14      -0.02901570      -0.07712099       0.00184044 
Si       0.94586577       2.10800732       1.64677163       14      -0.07712099       0.02901570       0.00184044 
Si       1.89388166       4.94775476       3.48146614       14       0.07712099       0.02901570      -0.00184044 
Si       2.10800732       0.94586577       5.19087872       14       0.02901570      -0.07712099      -0.00184044 
Si       3.57148754       4.73362909       1.77205354       14      -0.02901570       0.07712099      -0.00184044 
Si       3.78561321       0.73174011       0.06264095       14      -0.07712099      -0.02901570      -0.00184044 
Si       4.73362909       3.57148754       5.06559681       14       0.07712099      -0.02901570       0.00184044 
Si       4.94775476       1.89388165       3.35618422       14       0.02901570       0.07712099       0.00184044 
12
Lattice="5.673787444375925 -4.739068526204483e-44 1.5801599559403983e-26 -9.128249249985064e-44 5.673787444375925 -1.5302275959285846e-17 2.0048267919461184e-26 -2.0035227446426568e-17 6.851692737997866" Properties=species:S:1:pos:R:3:Z:I:1:forces:R:3 stress="-5.729094927941995e-05 5.674636354178077e-54 3.6631490770259566e-30 5.674636354178077e-54 -5.729094927941995e-05 -1.2721144868658095e-20 3.6631490770259566e-30 -1.2721144868658095e-20 0.0008191858245847171" cutoff=-1.0 energy=-1956.08707754 nneightol=1.2 pbc="T T T"
Si       0.45511760       0.45511760      -0.00000000       14       0.00509966       0.00509966      -0.00000000 
Si      -0.45511760      -0.45511760       3.42584637       14      -0.00509966      -0.00509966       0.00000000 
Si       2.38177611       3.29201133       5.13876956       14      -0.00509966       0.00509966      -0.00000000 
Si       3.29201133       2.38177611       1.71292318       14       0.00509966      -0.00509966       0.00000000 
Si       0.72917990       3.77618644      -0.06599767       14       0.00159354      -0.04106571      -0.00096549 
Si       0.93929271       2.10771382       1.64692552       14      -0.04106571      -0.00159354      -0.00096549 
Si       1.89760101       4.94460754       3.49184404       14       0.04106571      -0.00159354       0.00096549 
Si       2.10771382       0.93929271       5.20476722       14      -0.00159354      -0.04106571       0.00096549 
Si       3.56607363       4.73449474       1.77892085       14       0.00159354       0.04106571       0.00096549 
Si       3.77618644       0.72917990       0.06599767       14      -0.04106571       0.00159354       0.00096549 
Si       4.73449474       3.56607363       5.07277189       14       0.04106571       0.00159354      -0.00096549 
Si       4.94460754       1.89760101       3.35984870       14      -0.00159354       0.04106571      -0.00096549 
12
Lattice="5.673380781365536 -5.096895111950857e-44 1.5780653925972106e-26 -9.631801645870669e-44 5.673380781365536 -1.581147084138857e-17 2.001623287333107e-26 -2.0675336541560405e-17 6.850882220227111" Properties=species:S:1:pos:R:3:Z:I:1:forces:R:3 stress="-4.723838099464972e-05 -8.50018090820883e-54 1.427857659655103e-30 -8.50018090820883e-54 -4.723838099464972e-05 -1.995185081801726e-27 1.427857659655103e-30 -1.995185081801726e-27 0.0003027549613128011" cutoff=-1.0 energy=-1956.08768479 nneightol=1.2 pbc="T T T"
Si       0.45335335       0.45335335      -0.00000000       14       0.00088975       0.00088975      -0.00000000 
Si      -0.45335335      -0.45335335       3.42544111       14      -0.00088975      -0.00088975       0.00000000 
Si       2.38333704       3.29004374       5.13816167       14      -0.00088975       0.00088975      -0.00000000 
Si       3.29004374       2.38333704       1.71272055       14       0.00088975      -0.00088975       0.00000000 
Si       0.72860256       3.77259621      -0.06711031       14       0.01227879      -0.00917226       0.00088807 
Si       0.93590581       2.10808783       1.64561024       14      -0.00917226      -0.01227879       0.00088807 
Si       1.90078457       4.94477822       3.49255143       14       0.00917226      -0.01227879      -0.00088807 
Si       2.10808783       0.93590581       5.20527198       14      -0.01227879      -0.00917226      -0.00088807 
Si       3.56529295       4.73747497       1.77983086       14       0.01227879       0.00917226      -0.00088807 
Si       3.77259621       0.72860256       0.06711031       14      -0.00917226       0.01227879      -0.00088807 
Si       4.73747497       3.56529295       5.07105136       14       0.00917226       0.01227879       0.00088807 
Si       4.94477822       1.90078457       3.35833079       14      -0.01227879       0.00917226       0.00088807 
12
Lattice="5.67343582876156 -5.181974706962967e-44 1.5759622566099996e-26 -9.736695518522414e-44 5.67343582876156 -1.5872309565571874e-17 1.9983698353784665e-26 -2.0740333509011225e-17 6.849822706004885" Properties=species:S:1:pos:R:3:Z:I:1:forces:R:3 stress="8.915587218915492e-06 -5.657411758917123e-54 6.39042518963787e-32 -5.657411758917123e-54 8.915587218915488e-06 1.979656711382528e-21 6.39042518963787e-32 1.979656711382528e-21 2.1143038846070536e-05" cutoff=-1.0 energy=-1956.08776594 nneightol=1.2 pbc="T T T"
Si       0.45297647       0.45297647      -0.00000000       14      -0.00331085      -0.00331085       0.00000000 
Si      -0.45297647      -0.45297647       3.42491136       14       0.00331085       0.00331085      -0.00000000 
Si       2.38374144       3.28969439       5.13736703       14       0.00331085      -0.00331085       0.00000000 
Si       3.28969439       2.38374144       1.71245567       14      -0.00331085       0.00331085      -0.00000000 
Si       0.72906256       3.77180986      -0.06723707       14       0.01008735      -0.00095522       0.00278627 
Si       0.93509194       2.10765535       1.64521860       14      -0.00095522      -0.01008735       0.00278627 
Si       1.90162597       4.94437326       3.49214843       14       0.00095522      -0.01008735      -0.00278627 
Si       2.10765535       0.93509194       5.20460410       14      -0.01008735      -0.00095522      -0.00278627 
Si       3.56578048       4.73834388       1.77969275       14       0.01008735       0.00095522      -0.00278627 
Si       3.77180986       0.72906256       0.06723707       14      -0.00095522       0.01008735      -0.00278627 
Si       4.73834388       3.56578048       5.07012996       14       0.00095522       0.01008735       0.00278627 
Si       4.94437326       1.90162597       3.35767428       14      -0.01008735       0.00095522       0.00278627 
12
Lattice="5.673229997387043 -5.255459123782899e-44 1.573291268707105e-26 -9.84427573310709e-44 5.673229997387043 -1.5984027703333578e-17 1.9942979376877786e-26 -2.0870744801732204e-17 6.848289722529881" Properties=species:S:1:pos:R:3:Z:I:1:forces:R:3 stress="6.58744102773877e-05 5.947462574981831e-66 -1.4933349976727462e-30 5.947462574981831e-66 6.58744102773877e-05 1.4627057404711978e-20 -1.4933349976727462e-30 1.4627057404711978e-20 -0.0003067137584175255" cutoff=-1.0 energy=-1956.08784781 nneightol=1.2 pbc="T T T"
Si       0.45208258       0.45208258      -0.00000000       14      -0.00622798      -0.00622798       0.00000000 
Si      -0.45208258      -0.45208258       3.42414487       14       0.00622798       0.00622798      -0.00000000 
Si       2.38453241       3.28869758       5.13621729       14       0.00622798      -0.00622798       0.00000000 
Si       3.28869758       2.38453241       1.71207243       14      -0.00622798       0.00622798      -0.00000000 
Si       0.73054961       3.77048977      -0.06692211       14       0.00246049       0.00701972       0.00348082 
Si       0.93387477       2.10606538       1.64515032       14       0.00701972      -0.00246049       0.00348082 
Si       1.90274023       4.94268038       3.49106697       14      -0.00701972      -0.00246049      -0.00348082 
Si       2.10606538       0.93387477       5.20313940       14      -0.00246049       0.00701972      -0.00348082 
Si       3.56716462       4.73935523       1.77899454       14       0.00246049      -0.00701972      -0.00348082 
Si       3.77048977       0.73054961       0.06692211       14       0.00701972       0.00246049      -0.00348082 
Si       4.73935523       3.56716462       5.06929519       14      -0.00701972       0.00246049       0.00348082 
Si       4.94268038       1.90274023       3.35722275       14      -0.00246049      -0.00701972       0.00348082 
12
Lattice="5.672999705989686 -5.18728705841976e-44 1.5743433763519044e-26 -9.814551990708474e-44 5.672999705989686 -1.6122697298302046e-17 1.9959864027735493e-26 -2.106085864534188e-17 6.8488309366282705" Properties=species:S:1:pos:R:3:Z:I:1:forces:R:3 stress="3.937670644955965e-05 5.651967546612012e-54 -7.918952450679181e-31 5.651967546612012e-54 3.937670644955965e-05 -6.85007708153761e-75 -7.918952450679181e-31 -6.85007708153761e-75 -0.00015941479147032187" cutoff=-1.0 energy=-1956.08787268 nneightol=1.2 pbc="T T T"
Si       0.45191933       0.45191933      -0.00000000       14      -0.00332484      -0.00332484       0.00000000 
Si      -0.45191933      -0.45191933       3.42441547       14       0.00332484       0.00332484      -0.00000000 
Si       2.38458052       3.28841919       5.13662321       14       0.00332484      -0.00332484       0.00000000 
Si       3.28841919       2.38458052       1.71220773       14      -0.00332484       0.00332484      -0.00000000 
Si       0.73084087       3.77044258      -0.06667830       14       0.00112038       0.00359194       0.00179668 
Si       0.93394272       2.10565898       1.64552943       14       0.00359194      -0.00112038       0.00179668 
Si       1.90255712       4.94215884       3.49109377       14      -0.00359194      -0.00112038      -0.00179668 
Si       2.10565898       0.93394272       5.20330150       14      -0.00112038       0.00359194      -0.00179668 
Si       3.56734073       4.73905698       1.77888603       14       0.00112038      -0.00359194      -0.00179668 
Si       3.77044258       0.73084087       0.06667830       14       0.00359194       0.00112038      -0.00179668 
Si       4.73905698       3.56734073       5.06994491       14      -0.00359194       0.00112038       0.00179668 
Si       4.94215884       1.90255712       3.35773716       14      -0.00112038      -0.00359194       0.00179668 
12
Lattice="5.672718796064186 -5.155524731165521e-44 1.5755258502289128e-26 -9.784726439230634e-44 5.672718796064186 -1.613741351627858e-17 1.997890698617263e-26 -2.1088919919877005e-17 6.849443380820028" Properties=species:S:1:pos:R:3:Z:I:1:forces:R:3 stress="2.492164376005792e-06 -5.658200366765601e-54 -9.394461459386283e-33 -5.658200366765601e-54 2.492164376005792e-06 -1.3305580554757712e-27 -9.394461459386283e-33 -1.3305580554757712e-27 -4.99741714669081e-07" cutoff=-1.0 energy=-1956.08788156 nneightol=1.2 pbc="T T T"
Si       0.45172258       0.45172258      -0.00000000       14      -0.00004614      -0.00004614       0.00000000 
Si      -0.45172258      -0.45172258       3.42472170       14       0.00004614       0.00004614      -0.00000000 
Si       2.38463681       3.28808199       5.13708254       14       0.00004614      -0.00004614       0.00000000 
Si       3.28808199       2.38463681       1.71236084       14      -0.00004614       0.00004614      -0.00000000 
Si       0.73111971       3.77035196      -0.06644009       14      -0.00003415      -0.00000941      -0.00000653 
Si       0.93399255       2.10523968       1.64592075       14      -0.00000941       0.00003415      -0.00000653 
Si       1.90236684       4.94159908       3.49116178       14       0.00000941       0.00003415       0.00000653 
Si       2.10523968       0.93399255       5.20352263       14       0.00003415      -0.00000941       0.00000653 
Si       3.56747912       4.73872624       1.77880093       14      -0.00003415       0.00000941       0.00000653 
Si       3.77035196       0.73111971       0.06644009       14      -0.00000941      -0.00003415       0.00000653 
Si       4.73872624       3.56747912       5.07064245       14       0.00000941      -0.00003415      -0.00000653 
Si       4.94159908       1.90236684       3.35828160       14       0.00003415       0.00000941      -0.00000653 
