12
Lattice="5.672718796064186 -5.155524731165521e-44 1.5755258502289128e-26 -9.784726439230634e-44 5.672718796064186 -1.613741351627858e-17 1.997890698617263e-26 -2.1088919919877005e-17 6.849443380820028" Properties=species:S:1:pos:R:3:Z:I:1:forces:R:3 cutoff=-1.0 stress="2.492164376005792e-06 -5.658200366765601e-54 -9.394461459386283e-33 -5.658200366765601e-54 2.492164376005792e-06 -1.3305580554757712e-27 -9.394461459386283e-33 -1.3305580554757712e-27 -4.99741714669081e-07" Minim_Constant_Volume=T nneightol=1.2 pbc="T T T" energy=-1956.08788156 Minim_Hydrostatic_Strain=F
Si       0.45172258       0.45172258      -0.00000000       14      -0.00004614      -0.00004614       0.00000000 
Si      -0.45172258      -0.45172258       3.42472170       14       0.00004614       0.00004614      -0.00000000 
Si       2.38463681       3.28808199       5.13708254       14       0.00004614      -0.00004614       0.00000000 
Si       3.28808199       2.38463681       1.71236084       14      -0.00004614       0.00004614      -0.00000000 
Si       0.73111971       3.77035196      -0.06644009       14      -0.00003415      -0.00000941      -0.00000653 
Si       0.93399255       2.10523968       1.64592075       14      -0.00000941       0.00003415      -0.00000653 
Si       1.90236684       4.94159908       3.49116178       14       0.00000941       0.00003415       0.00000653 
Si       2.10523968       0.93399255       5.20352263       14       0.00003415      -0.00000941       0.00000653 
Si       3.56747912       4.73872624       1.77880093       14      -0.00003415       0.00000941       0.00000653 
Si       3.77035196       0.73111971       0.06644009       14      -0.00000941      -0.00003415       0.00000653 
Si       4.73872624       3.56747912       5.07064245       14       0.00000941      -0.00003415      -0.00000653 
Si       4.94159908       1.90236684       3.35828160       14       0.00003415       0.00000941      -0.00000653 
12
Lattice="5.626003063168566 4.1697172590422365e-45 -1.823058004689663e-26 -7.490346362131685e-46 5.626003063168566 3.989548603221045e-18 -2.1056461457368117e-26 3.2172524768171975e-18 6.789572655696798" Properties=species:S:1:pos:R:3:Z:I:1:forces:R:3 cutoff=-1.0 stress="-0.014183534983803781 6.113161384023023e-54 1.9925776251627963e-29 6.113161384023023e-54 -0.014183534983803781 -1.3534367347102932e-27 1.9925776251627963e-29 -1.3534367347102932e-27 -0.014150178184963636" Minim_Constant_Volume=T nneightol=1.2 pbc="T T T" energy=-1956.05027738 Minim_Hydrostatic_Strain=F
Si       0.44813943       0.44813943      -0.00000000       14       0.00013228       0.00013228       0.00000000 
Si      -0.44813943      -0.44813943       3.39478633       14      -0.00013228      -0.00013228      -0.00000000 
Si       2.36486209       3.26114097       5.09217949       14      -0.00013228       0.00013228       0.00000000 
Si       3.26114097       2.36486209       1.69739316       14       0.00013228      -0.00013228      -0.00000000 
Si       0.73028002       3.73755318      -0.05200758       14       0.00041221      -0.00060761       0.00002765 
Si       0.92455164       2.08272151       1.64538558       14      -0.00060761      -0.00041221       0.00002765 
Si       1.88844989       4.89572304       3.44679391       14       0.00060761      -0.00041221      -0.00002765 
Si       2.08272151       0.92455164       5.14418707       14      -0.00041221      -0.00060761      -0.00002765 
Si       3.54328156       4.70145142       1.74940074       14       0.00041221       0.00060761      -0.00002765 
Si       3.73755318       0.73028002       0.05200758       14      -0.00060761       0.00041221      -0.00002765 
Si       4.70145142       3.54328156       5.04017192       14       0.00060761       0.00041221       0.00002765 
Si       4.89572304       1.88844989       3.34277875       14      -0.00041221       0.00060761       0.00002765 
12
Lattice="5.579725668472329 -2.7100633059361743e-44 -2.779620670904198e-26 -3.076079998593615e-44 5.579725668472329 7.453385492522182e-18 -3.2621898960154987e-26 7.412466942686823e-18 6.725667929422794" Properties=species:S:1:pos:R:3:Z:I:1:forces:R:3 cutoff=-1.0 stress="-0.03096468511765907 2.4302553721037803e-62 6.719873582851332e-29 2.4302553721037803e-62 -0.03096468511765907 1.852319446284358e-73 6.719873582851332e-29 1.852319446284358e-73 -0.03084733888320382" Minim_Constant_Volume=T nneightol=1.2 pbc="T T T" energy=-1955.9270009 Minim_Hydrostatic_Strain=F
Si       0.44793033       0.44793033      -0.00000000       14       0.00020802       0.00020802       0.00000000 
Si      -0.44793033      -0.44793033       3.36283397       14      -0.00020802      -0.00020802      -0.00000000 
Si       2.34193250       3.23779317       5.04425095       14      -0.00020802       0.00020802       0.00000000 
Si       3.23779317       2.34193250       1.68141698       14       0.00020802      -0.00020802      -0.00000000 
Si       0.72953888       3.70721171      -0.03373296       14       0.00107116      -0.00161670      -0.00016403 
Si       0.91734887       2.06032395       1.64768402       14      -0.00161670      -0.00107116      -0.00016403 
Si       1.87251396       4.85018679       3.39656693       14       0.00161670      -0.00107116       0.00016403 
Si       2.06032395       0.91734887       5.07798391       14      -0.00107116      -0.00161670       0.00016403 
Si       3.51940171       4.66237680       1.71514994       14       0.00107116       0.00161670       0.00016403 
Si       3.70721171       0.72953888       0.03373296       14      -0.00161670       0.00107116       0.00016403 
Si       4.66237680       3.51940171       5.01051799       14       0.00161670       0.00107116      -0.00016403 
Si       4.85018679       1.87251396       3.32910100       14      -0.00107116       0.00161670      -0.00016403 
12
Lattice="5.5328955841273535 -1.750066465763339e-43 -3.063227321029874e-26 -1.0471140970846012e-43 5.5328955841273535 2.1834834646684017e-17 -3.608659446134736e-26 2.4752750500822474e-17 6.659999789452277" Properties=species:S:1:pos:R:3:Z:I:1:forces:R:3 cutoff=-1.0 stress="-0.04957180492414349 2.202920539503202e-53 -5.491925425535606e-27 2.202920539503202e-53 -0.04957180492414349 -5.611948355708524e-27 -5.491925425535606e-27 -5.611948355708524e-27 -0.04950095044330518" Minim_Constant_Volume=T nneightol=1.2 pbc="T T T" energy=-1955.70612875 Minim_Hydrostatic_Strain=F
Si       0.44962585       0.44962585      -0.00000000       14       0.00032416       0.00032416       0.00000000 
Si      -0.44962585      -0.44962585       3.32999990       14      -0.00032416      -0.00032416      -0.00000000 
Si       2.31682193       3.21607365       4.99499984       14      -0.00032416       0.00032416       0.00000000 
Si       3.21607365       2.31682193       1.66499994       14       0.00032416      -0.00032416      -0.00000000 
Si       0.72999564       3.67736260      -0.01169168       14       0.00116448      -0.00114976       0.00011628 
Si       0.91091480       2.03645214       1.65330826       14      -0.00114976      -0.00116448       0.00011628 
Si       1.85553299       4.80289994       3.34169158       14       0.00114976      -0.00116448      -0.00011628 
Si       2.03645214       0.91091480       5.00669153       14      -0.00116448      -0.00114976      -0.00011628 
Si       3.49644344       4.62198078       1.67669163       14       0.00116448       0.00114976      -0.00011628 
Si       3.67736260       0.72999564       0.01169168       14      -0.00114976       0.00116448      -0.00011628 
Si       4.62198078       3.49644344       4.98330816       14       0.00114976       0.00116448       0.00011628 
Si       4.80289994       1.85553299       3.31830821       14      -0.00116448       0.00114976       0.00011628 
12
Lattice="5.48547756560561 -1.735068047479323e-43 -2.900388137921431e-26 -9.848777164107822e-44 5.48547756560561 2.161357795080729e-17 -3.415273029173647e-26 2.4540614497060097e-17 6.592512693953257" Properties=species:S:1:pos:R:3:Z:I:1:forces:R:3 cutoff=-1.0 stress="-0.06979416041762546 4.278804591811343e-53 -5.5579306308340946e-27 4.278804591811343e-53 -0.06979416041762546 -7.148006695383303e-27 -5.5579306308340946e-27 -7.148006695383303e-27 -0.06976875821779815" Minim_Constant_Volume=T nneightol=1.2 pbc="T T T" energy=-1955.37822941 Minim_Hydrostatic_Strain=F
Si       0.45260455       0.45260455      -0.00000000       14       0.00057240       0.00057240       0.00000000 
Si      -0.45260455      -0.45260455       3.29625635       14      -0.00057240      -0.00057240      -0.00000000 
Si       2.29013423       3.19534334       4.94438452       14      -0.00057240       0.00057240       0.00000000 
Si       3.19534334       2.29013423       1.64812817       14       0.00057240      -0.00057240      -0.00000000 
Si       0.73193784       3.64763118       0.01411790       14       0.00126829      -0.00039493       0.00037810 
Si       0.90489239       2.01080094       1.66224607       14      -0.00039493      -0.00126829       0.00037810 
Si       1.83784638       4.75353972       3.28213846       14       0.00039493      -0.00126829      -0.00037810 
Si       2.01080094       0.90489239       4.93026663       14      -0.00126829      -0.00039493      -0.00037810 
Si       3.47467663       4.58058517       1.63401028       14       0.00126829       0.00039493      -0.00037810 
Si       3.64763118       0.73193784      -0.01411790       14      -0.00039493       0.00126829      -0.00037810 
Si       4.58058517       3.47467663       4.95850242       14       0.00039493       0.00126829       0.00037810 
Si       4.75353972       1.83784638       3.31037424       14      -0.00126829       0.00039493       0.00037810 
12
Lattice="5.437738282613976 -6.00651380943567e-44 -8.15288785869669e-26 -4.584705710549666e-43 5.437738282613976 -1.961863086105091e-17 -9.730471273044452e-26 -2.4923608788628682e-17 6.5224173621565145" Properties=species:S:1:pos:R:3:Z:I:1:forces:R:3 cutoff=-1.0 stress="-0.0917752261602961 -3.128666834754222e-53 6.43091275992567e-27 -3.128666834754222e-53 -0.0917752261602961 -8.745904443527452e-27 6.43091275992567e-27 -8.745904443527452e-27 -0.091757393665662" Minim_Constant_Volume=T nneightol=1.2 pbc="T T T" energy=-1954.9342584 Minim_Hydrostatic_Strain=F
Si       0.45626289       0.45626289      -0.00000000       14       0.00075987       0.00075987      -0.00000000 
Si      -0.45626289      -0.45626289       3.26120869       14      -0.00075987      -0.00075987       0.00000000 
Si       2.26260625       3.17513204       4.89181302       14      -0.00075987       0.00075987      -0.00000000 
Si       3.17513204       2.26260625       1.63060434       14       0.00075987      -0.00075987       0.00000000 
Si       0.73519945       3.61795129       0.04296501       14       0.00151286      -0.00021670       0.00035988 
Si       0.89908214       1.98366969       1.67356934       14      -0.00021670      -0.00151286       0.00035988 
Si       1.81978699       4.70253883       3.21824368       14       0.00021670      -0.00151286      -0.00035988 
Si       1.98366969       0.89908214       4.84884802       14      -0.00151286      -0.00021670      -0.00035988 
Si       3.45406860       4.53865614       1.58763933       14       0.00151286       0.00021670      -0.00035988 
Si       3.61795129       0.73519945      -0.04296501       14      -0.00021670       0.00151286      -0.00035988 
Si       4.53865614       3.45406860       4.93477803       14       0.00021670       0.00151286       0.00035988 
Si       4.70253883       1.81978699       3.30417368       14      -0.00151286       0.00021670       0.00035988 
12
Lattice="5.71668104121792 -1.2316651875452305e-44 2.0998508689634755e-26 -1.0834982457129338e-43 5.71668104121792 -6.3269752822177084e-18 2.6278577465445295e-26 -9.229528039605719e-18 6.913106524726122" Properties=species:S:1:pos:R:3:Z:I:1:forces:R:3 cutoff=-1.0 stress="0.012496212706805789 3.1588867309307894e-63 2.1720446813629754e-29 3.1588867309307894e-63 0.012496212706805789 1.3081668920236878e-27 2.1720446813629754e-29 1.3081668920236878e-27 0.012452496193157657" Minim_Constant_Volume=T nneightol=1.2 pbc="T T T" energy=-1956.05241172 Minim_Hydrostatic_Strain=F
Si       0.45390470       0.45390470      -0.00000000       14       0.00004352       0.00004352      -0.00000000 
Si      -0.45390470      -0.45390470       3.45655327       14      -0.00004352      -0.00004352       0.00000000 
Si       2.40443582       3.31224522       5.18482990       14      -0.00004352       0.00004352      -0.00000000 
Si       3.31224522       2.40443582       1.72827663       14       0.00004352      -0.00004352       0.00000000 
Si       0.73299027       3.80023550      -0.08030212       14       0.00050671       0.00145439      -0.00029212 
Si       0.94189497       2.12535025       1.64797451       14       0.00145439      -0.00050671      -0.00029212 
Si       1.91644554       4.98369077       3.53685538       14      -0.00145439      -0.00050671       0.00029212 
Si       2.12535025       0.94189497       5.26513201       14      -0.00050671       0.00145439       0.00029212 
Si       3.59133079       4.77478607       1.80857875       14       0.00050671      -0.00145439       0.00029212 
Si       3.80023550       0.73299027       0.08030212       14       0.00145439       0.00050671       0.00029212 
Si       4.77478607       3.59133079       5.10452778       14      -0.00145439       0.00050671      -0.00029212 
Si       4.98369077       1.91644554       3.37625114       14      -0.00050671      -0.00145439      -0.00029212 
12
Lattice="5.745286468182139 9.126604984261105e-44 2.081295577934616e-26 -8.774355154601053e-44 5.745286468182139 1.629076449909625e-17 2.5826644564214098e-26 1.8152377565722788e-17 7.01110812209412" Properties=species:S:1:pos:R:3:Z:I:1:forces:R:3 cutoff=-1.0 stress="0.02010489713569916 -1.3812664408237603e-42 -5.097558967595523e-27 -1.3812664408237603e-42 0.02010489713569916 5.45011186358003e-18 -5.097558967595523e-27 5.45011186358003e-18 0.02011361878506135" Minim_Constant_Volume=T nneightol=1.2 pbc="T T T" energy=-1955.96148477 Minim_Hydrostatic_Strain=F
Si       0.45116874       0.45116874      -0.00000000       14       0.00004407       0.00004407       0.00000000 
Si      -0.45116874      -0.45116874       3.50555407       14      -0.00004407      -0.00004407      -0.00000000 
Si       2.42147449       3.32381198       5.25833109       14      -0.00004407       0.00004407       0.00000000 
Si       3.32381198       2.42147449       1.75277703       14       0.00004407      -0.00004407      -0.00000000 
Si       0.73123293       3.81442938      -0.10836367       14      -0.00002398       0.00004015       0.00007383 
Si       0.94178614       2.14141030       1.64441336       14       0.00004015       0.00002398       0.00007383 
Si       1.93085709       5.01405354       3.61391773       14      -0.00004015       0.00002398      -0.00007383 
Si       2.14141030       0.94178614       5.36669476       14       0.00002398       0.00004015      -0.00007383 
Si       3.60387617       4.80350033       1.86114070       14      -0.00002398      -0.00004015      -0.00007383 
Si       3.81442938       0.73123293       0.10836367       14       0.00004015      -0.00002398      -0.00007383 
Si       4.80350033       3.60387617       5.14996743       14      -0.00004015      -0.00002398       0.00007383 
Si       5.01405354       1.93085709       3.39719039       14       0.00002398      -0.00004015       0.00007383 
12
Lattice="5.777241610445995 -1.0264343986012487e-43 3.847816692585152e-27 -2.3481978871655797e-43 5.777241610445995 -2.719043816862192e-17 5.074875464585578e-27 -3.489275052239843e-17 7.098967050886548" Properties=species:S:1:pos:R:3:Z:I:1:forces:R:3 cutoff=-1.0 stress="0.027543163747260284 1.360642519073921e-54 5.0522887468558905e-27 1.360642519073921e-54 0.02754316374726029 5.042253365546138e-27 5.0522887468558905e-27 5.042253365546138e-27 0.027538916170849456" Minim_Constant_Volume=T nneightol=1.2 pbc="T T T" energy=-1955.83018864 Minim_Hydrostatic_Strain=F
Si       0.45179143       0.45179143      -0.00000000       14      -0.00041546      -0.00041546       0.00000000 
Si      -0.45179143      -0.45179143       3.54948353       14       0.00041546       0.00041546      -0.00000000 
Si       2.43682937       3.34041224       5.32422529       14       0.00041546      -0.00041546       0.00000000 
Si       3.34041224       2.43682937       1.77474176       14      -0.00041546       0.00041546      -0.00000000 
Si       0.72898756       3.83404303      -0.13135876       14       0.00027586       0.00097337      -0.00018756 
Si       0.94542221       2.15963324       1.64338300       14       0.00097337      -0.00027586      -0.00018756 
Si       1.94319859       5.04825405       3.68084229       14      -0.00097337      -0.00027586       0.00018756 
Si       2.15963324       0.94542221       5.45558405       14      -0.00027586       0.00097337       0.00018756 
Si       3.61760837       4.83181940       1.90610052       14       0.00027586      -0.00097337       0.00018756 
Si       3.83404303       0.72898756       0.13135876       14       0.00097337       0.00027586       0.00018756 
Si       4.83181940       3.61760837       5.19286653       14      -0.00097337       0.00027586      -0.00018756 
Si       5.04825405       1.94319859       3.41812476       14      -0.00027586      -0.00097337      -0.00018756 
12
Lattice="5.814214611216348 2.7146053308450035e-42 6.641220160697639e-28 2.5475672238341055e-42 5.814214611216348 -6.429159132339715e-18 1.1177698504810873e-27 -9.306717599465327e-18 7.172080863336759" Properties=species:S:1:pos:R:3:Z:I:1:forces:R:3 cutoff=-1.0 stress="0.03480225061882253 -9.863542784598485e-46 2.8312533985511708e-30 -9.863542784598485e-46 0.03480225061882254 -4.847775829684813e-17 2.8312533985511708e-30 -4.847775829684813e-17 0.03481060579046607" Minim_Constant_Volume=T nneightol=1.2 pbc="T T T" energy=-1955.65813645 Minim_Hydrostatic_Strain=F
Si       0.45588674       0.45588674      -0.00000000       14       0.00082387       0.00082387      -0.00000000 
Si      -0.45588674      -0.45588674       3.58604044       14      -0.00082387      -0.00082387       0.00000000 
Si       2.45122056       3.36299405       5.37906065       14      -0.00082387       0.00082387      -0.00000000 
Si       3.36299405       2.45122056       1.79302021       14       0.00082387      -0.00082387       0.00000000 
Si       0.72754818       3.86125982      -0.14766631       14       0.00065670       0.00002281      -0.00057831 
Si       0.95415251       2.17955912       1.64535390       14       0.00002281      -0.00065670      -0.00057831 
Si       1.95295479       5.08666643       3.73370675       14      -0.00002281      -0.00065670       0.00057831 
Si       2.17955912       0.95415251       5.52672696       14      -0.00065670       0.00002281       0.00057831 
Si       3.63465549       4.86006210       1.94068653       14       0.00065670      -0.00002281       0.00057831 
Si       3.86125982       0.72754818       0.14766631       14       0.00002281       0.00065670       0.00057831 
Si       4.86006210       3.63465549       5.23139434       14      -0.00002281       0.00065670      -0.00057831 
Si       5.08666643       1.95295479       3.43837411       14      -0.00065670      -0.00002281      -0.00057831 
12
Lattice="5.854648040527245 5.151327097672874e-42 9.347502962006407e-27 4.7973558005166107e-42 5.854648040527245 2.8087893375415446e-17 1.1818909893807396e-26 3.3520220253904365e-17 7.2341603725385735" Properties=species:S:1:pos:R:3:Z:I:1:forces:R:3 cutoff=-1.0 stress="0.041322575984982464 2.5175559617637844e-43 -2.405936256453283e-27 2.5175559617637844e-43 0.041322575984982464 -3.227351716147527e-18 -2.405936256453283e-27 -3.227351716147527e-18 0.041243256225195146" Minim_Constant_Volume=T nneightol=1.2 pbc="T T T" energy=-1955.44775849 Minim_Hydrostatic_Strain=F
Si       0.46111748       0.46111748      -0.00000000       14       0.00079048       0.00079048       0.00000000 
Si      -0.46111748      -0.46111748       3.61708019       14      -0.00079048      -0.00079048      -0.00000000 
Si       2.46620653       3.38844151       5.42562028       14      -0.00079048       0.00079048       0.00000000 
Si       3.38844151       2.46620653       1.80854009       14       0.00079048      -0.00079048      -0.00000000 
Si       0.72777013       3.89320591      -0.16126943       14      -0.00033624       0.00056970       0.00101446 
Si       0.96588188       2.19955388       1.64727066       14       0.00056970       0.00033624       0.00101446 
Si       1.96144213       5.12687791       3.77834962       14      -0.00056970       0.00033624      -0.00101446 
Si       2.19955388       0.96588188       5.58688971       14       0.00033624       0.00056970      -0.00101446 
Si       3.65509416       4.88876616       1.96980952       14      -0.00033624      -0.00056970      -0.00101446 
Si       3.89320591       0.72777013       0.16126943       14       0.00056970      -0.00033624      -0.00101446 
Si       4.88876616       3.65509416       5.26435085       14      -0.00056970      -0.00033624       0.00101446 
Si       5.12687791       1.96144213       3.45581075       14       0.00033624      -0.00056970       0.00101446 
12
Lattice="5.89736365715735 5.226857101455308e-42 9.24075752966162e-27 4.834916086898651e-42 5.89736365715735 4.9800160673504085e-17 1.1686970592087814e-26 6.033317311773415e-17 7.288192023016768" Properties=species:S:1:pos:R:3:Z:I:1:forces:R:3 cutoff=-1.0 stress="0.04741638414488483 1.2796271801372278e-45 3.9406930877269805e-29 1.2796271801372278e-45 0.047416384144884825 -1.3016328094837434e-17 3.9406930877269805e-29 -1.3016328094837434e-17 0.0471363211912904" Minim_Constant_Volume=T nneightol=1.2 pbc="T T T" energy=-1955.20370867 Minim_Hydrostatic_Strain=F
Si       0.46726558       0.46726558      -0.00000000       14      -0.00039059      -0.00039059      -0.00000000 
Si      -0.46726558      -0.46726558       3.64409602       14       0.00039059       0.00039059       0.00000000 
Si       2.48141624       3.41594742       5.46614402       14       0.00039059      -0.00039059      -0.00000000 
Si       3.41594742       2.48141624       1.82204800       14      -0.00039059       0.00039059       0.00000000 
Si       0.72918739       3.92896228      -0.17336929       14       0.00047875      -0.00059620      -0.00062827 
Si       0.98028044       2.21949443       1.64867871       14      -0.00059620      -0.00047875      -0.00062827 
Si       1.96840138       5.16817626       3.81746531       14       0.00059620      -0.00047875       0.00062827 
Si       2.21949443       0.98028044       5.63951331       14      -0.00047875      -0.00059620       0.00062827 
Si       3.67786923       4.91708322       1.99541729       14       0.00047875       0.00059620       0.00062827 
Si       3.92896228       0.72918739       0.17336929       14      -0.00059620       0.00047875       0.00062827 
Si       4.91708322       3.67786923       5.29277473       14       0.00059620       0.00047875      -0.00062827 
Si       5.16817626       1.96840138       3.47072672       14      -0.00047875       0.00059620      -0.00062827 
