1
Lattice="2.6575799690038906 7.042412125908372e-17 -1.7511282127983916e-35 1.3287899845019453 2.30153176574603 1.9052664637041647e-35 -1.8577445745257756e-35 3.3347538188994654e-35 2.4760032635366493" Properties=species:S:1:pos:R:3:Z:I:1:forces:R:3 stress="-1.866701731639491e-06 -1.4085871906814198e-23 -3.464297647236092e-41 -1.4085871906814198e-23 -1.866701731639492e-06 1.4843195487378767e-40 -3.464297647236092e-41 1.4843195487378767e-40 9.182613022311591e-06" energy=-162.835544299 Minim_Constant_Volume=T Minim_Hydrostatic_Strain=F pbc="T T T"
Si       0.00000000       0.00000000       0.00000000       14       0.00000000       0.00000000       0.00000000 
1
Lattice="2.6336559261074544 4.9840716199616483e-17 -1.0147217196858569e-36 1.3168279630537272 2.2808129368364876 -4.5924980204064714e-35 -3.158339242630296e-36 -4.5513998503096317e-35 2.458158971303386" Properties=species:S:1:pos:R:3:Z:I:1:forces:R:3 stress="-0.017227381473008372 -4.949304281567762e-18 1.1123358445844728e-36 -4.949304281567762e-18 -0.01722738147300839 -5.3796584596858825e-37 1.1123358445844728e-36 -5.3796584596858825e-37 -0.017218562202518325" energy=-162.832370993 Minim_Constant_Volume=T Minim_Hydrostatic_Strain=F pbc="T T T"
Si       0.00000000       0.00000000       0.00000000       14       0.00000000       0.00000000       0.00000000 
1
Lattice="2.6092704630443535 4.299168260077379e-17 1.3669625443651756e-36 1.3046352315221768 2.2596945063407956 -4.5979730158999623e-35 -9.13073368012383e-37 -4.679449967617774e-35 2.4401064070373746" Properties=species:S:1:pos:R:3:Z:I:1:forces:R:3 stress="-0.0373068113302468 4.138753150429833e-18 -5.7790732852557806e-36 4.138753150429833e-18 -0.037306811330246846 1.5213197377886587e-35 -5.7790732852557806e-36 1.5213197377886587e-35 -0.03729822279173335" energy=-162.822139952 Minim_Constant_Volume=T Minim_Hydrostatic_Strain=F pbc="T T T"
Si       0.00000000       0.00000000       0.00000000       14       0.00000000       0.00000000       0.00000000 
1
Lattice="2.584375777288927 2.5007818070463673e-17 3.039576827580155e-36 1.2921878886444635 2.2381350760573664 -4.6190054703945477e-35 6.693591034087063e-37 -4.78544921281083e-35 2.421885861053447" Properties=species:S:1:pos:R:3:Z:I:1:forces:R:3 stress="-0.06027374415911908 -3.052702792218542e-17 -1.1322329594275066e-36 -3.052702792218542e-17 -0.060273744159119014 1.0455527140456792e-36 -1.1322329594275066e-36 1.0455527140456792e-36 -0.060265408318751844" energy=-162.803758078 Minim_Constant_Volume=T Minim_Hydrostatic_Strain=F pbc="T T T"
Si       0.00000000       0.00000000       0.00000000       14       0.00000000       0.00000000       0.00000000 
1
Lattice="2.558816652460272 1.1985297980592232e-18 -1.922868068211885e-36 1.279408326230136 2.216000224657253 -5.30978281224563e-35 -3.966353403101881e-36 -5.255803135682364e-35 2.403738515852957" Properties=species:S:1:pos:R:3:Z:I:1:forces:R:3 stress="-0.08604725833223101 1.674588511239623e-17 -2.2490087620583995e-36 1.674588511239623e-17 -0.08604725833223109 1.9901324666023685e-36 -2.2490087620583995e-36 1.9901324666023685e-36 -0.0860383439257972" energy=-162.776146624 Minim_Constant_Volume=T Minim_Hydrostatic_Strain=F pbc="T T T"
Si       0.00000000       0.00000000       0.00000000       14       0.00000000       0.00000000       0.00000000 
1
Lattice="2.532541871022076 -3.635782342332859e-17 3.7158911365108614e-36 1.266270935511038 2.1932455964528916 -4.563260422687626e-36 1.3578460564581651e-36 -2.854369232319546e-36 2.385709451240315" Properties=species:S:1:pos:R:3:Z:I:1:forces:R:3 stress="-0.11510079799813894 6.3666292199670805e-18 8.273145486691981e-38 6.3666292199670805e-18 -0.11510079799813891 -4.911349302988754e-35 8.273145486691981e-38 -4.911349302988754e-35 -0.11508935026077069" energy=-162.738234533 Minim_Constant_Volume=T Minim_Hydrostatic_Strain=F pbc="T T T"
Si       0.00000000       0.00000000       0.00000000       14       0.00000000       0.00000000       0.00000000 
1
Lattice="2.6807764749709215 7.642541138464659e-17 -1.779186457496541e-35 1.3403882374854608 2.3216205291925163 1.9074547297955685e-35 -1.888129705941497e-35 3.359356190217982e-35 2.494171306122818" Properties=species:S:1:pos:R:3:Z:I:1:forces:R:3 stress="0.01460618318770873 5.6951453736722745e-18 7.882320630321887e-38 5.6951453736722745e-18 0.014606183187708737 -9.047047216158071e-40 7.882320630321887e-38 -9.047047216158071e-40 0.014649672079012362" energy=-162.832699895 Minim_Constant_Volume=T Minim_Hydrostatic_Strain=F pbc="T T T"
Si       0.00000000       0.00000000       0.00000000       14       0.00000000       0.00000000       0.00000000 
1
Lattice="2.7041141812436202 7.944567404944894e-17 -1.8187953776600366e-35 1.3520570906218101 2.341831575690733 1.901129906930834e-35 -1.9301888074528347e-35 3.3826971051850464e-35 2.511091960281052" Properties=species:S:1:pos:R:3:Z:I:1:forces:R:3 stress="0.027568155047382057 -1.7117328486281533e-18 3.797342361218209e-35 -1.7117328486281533e-18 0.027568155047382067 -2.1839083086363537e-35 3.797342361218209e-35 -2.1839083086363537e-35 0.02762938921520789" energy=-162.824684904 Minim_Constant_Volume=T Minim_Hydrostatic_Strain=F pbc="T T T"
Si       0.00000000       0.00000000       0.00000000       14       0.00000000       0.00000000       0.00000000 
1
Lattice="2.7272526612381447 7.276338724634336e-17 -5.748689161860028e-35 1.3636263306190723 2.361870087170949 1.7380858675966155e-34 -5.585082875964137e-35 2.2097544162213866e-34 2.5274409350643703" Properties=species:S:1:pos:R:3:Z:I:1:forces:R:3 stress="0.03939193145987457 -2.6196550676827708e-18 1.3759303262913837e-35 -2.6196550676827708e-18 0.039391931459874636 1.446575513710545e-35 1.3759303262913837e-35 1.446575513710545e-35 0.03946253850247002" energy=-162.811969644 Minim_Constant_Volume=T Minim_Hydrostatic_Strain=F pbc="T T T"
Si       0.00000000       0.00000000       0.00000000       14       0.00000000       0.00000000       0.00000000 
1
Lattice="2.749614436843654 5.592141384898814e-17 -4.443296623167903e-35 1.374807218421827 2.381235952919046 1.3291035573640467e-34 -4.385533689854751e-35 1.705895298028822e-34 2.544325400159344" Properties=species:S:1:pos:R:3:Z:I:1:forces:R:3 stress="0.0503958627973135 9.518995805280695e-18 -1.9513532041840752e-35 9.518995805280695e-18 0.05039586279731354 5.45256614310006e-35 -1.9513532041840752e-35 5.45256614310006e-35 0.05048183159380344" energy=-162.794942577 Minim_Constant_Volume=T Minim_Hydrostatic_Strain=F pbc="T T T"
Si       0.00000000       0.00000000       0.00000000       14       0.00000000       0.00000000       0.00000000 
1
Lattice="2.771441014705079 2.867499187906725e-17 -4.1288506807385863e-35 1.3857205073525396 2.400138323824719 1.314284919352446e-34 -4.101904186419388e-35 1.6757287723577105e-34 2.5613263294271222" Properties=species:S:1:pos:R:3:Z:I:1:forces:R:3 stress="0.060800469960067674 -2.692891976919234e-18 -1.4834982349889807e-36 -2.692891976919234e-18 0.06080046996006778 3.842746791574252e-35 -1.4834982349889807e-36 3.842746791574252e-35 0.06082131575427986" energy=-162.773866164 Minim_Constant_Volume=T Minim_Hydrostatic_Strain=F pbc="T T T"
Si       0.00000000       0.00000000       0.00000000       14       0.00000000       0.00000000       0.00000000 
1
Lattice="2.792978387089177 2.1162893183393304e-17 -3.725086183556375e-35 1.3964891935445884 2.4187902354401127 2.1656189740067306e-34 -3.7357567452472706e-35 2.5651375097578336e-34 2.578020475486068" Properties=species:S:1:pos:R:3:Z:I:1:forces:R:3 stress="0.07040162234544729 -8.9711559504895e-18 -4.34972078755773e-36 -8.9711559504895e-18 0.07040162234544745 1.4650448019181298e-35 -4.34972078755773e-36 1.4650448019181298e-35 0.07051232203783869" energy=-162.748992784 Minim_Constant_Volume=T Minim_Hydrostatic_Strain=F pbc="T T T"
Si       0.00000000       0.00000000       0.00000000       14       0.00000000       0.00000000       0.00000000 
