2
Lattice="3.2793156204495997 -8.824334661758551e-23 -1.821798123717894e-22 -8.824334661758551e-23 3.2793156204495997 0.0 -1.821798123717894e-22 0.0 3.2793156204495997" Properties=species:S:1:pos:R:3:Z:I:1:forces:R:3 stress="2.2214295373429547e-06 2.4285908035044963e-22 2.625503571356212e-22 2.4285908035044963e-22 2.221429537342956e-06 4.0438589041440947e-22 2.625503571356212e-22 4.0438589041440947e-22 2.2214295373429564e-06" energy=-12.0056776694 Minim_Constant_Volume=T Minim_Hydrostatic_Strain=F pbc="T T T"
Ti       0.00000000       0.00000000      -0.00000000       22       0.00000000       0.00000000       0.00000000 
Ti       1.63965781       1.63965781       1.63965781       22      -0.00000000       0.00000000       0.00000000 
2
Lattice="3.2517570434066436 -8.750177082929478e-23 -1.806488171959634e-22 -8.750177082929478e-23 3.2517570434066436 0.0 -1.806488171959634e-22 0.0 3.2517570434066436" Properties=species:S:1:pos:R:3:Z:I:1:forces:R:3 stress="-0.016176465648044286 8.010582993792561e-23 -5.340388662528375e-23 8.010582993792561e-23 -0.016176465648044275 1.1731718463502597e-18 -5.340388662528375e-23 1.1731718463502597e-18 -0.01617646564804428" energy=-11.9983696071 Minim_Constant_Volume=T Minim_Hydrostatic_Strain=F pbc="T T T"
Ti       0.00000000       0.00000000      -0.00000000       22      -0.00000000       0.00000000      -0.00000000 
Ti       1.62587852       1.62587852       1.62587852       22      -0.00000000      -0.00000000      -0.00000000 
2
Lattice="3.223723260116628 -8.674740768094861e-23 -1.7909142230905517e-22 -8.674740768094861e-23 3.223723260116628 0.0 -1.7909142230905517e-22 0.0 3.223723260116628" Properties=species:S:1:pos:R:3:Z:I:1:forces:R:3 stress="-0.03443987472411509 3.2602040998606e-22 2.3203072522325455e-38 3.2602040998606e-22 -0.03443987472411511 -5.876695609273929e-18 2.3203072522325455e-38 -5.876695609273929e-18 -0.034439874724115103" energy=-11.9761119385 Minim_Constant_Volume=T Minim_Hydrostatic_Strain=F pbc="T T T"
Ti       0.00000000       0.00000000      -0.00000000       22       0.00000000      -0.00000000       0.00000000 
Ti       1.61186163       1.61186163       1.61186163       22       0.00000000      -0.00000000      -0.00000000 
2
Lattice="3.1951932394555764 -8.597969124447616e-23 -1.775064593434346e-22 -8.597969124447616e-23 3.1951932394555764 0.0 -1.775064593434346e-22 0.0 3.1951932394555764" Properties=species:S:1:pos:R:3:Z:I:1:forces:R:3 stress="-0.054935468772574464 -1.3827854332562783e-22 -1.6593425199075343e-22 -1.3827854332562783e-22 -0.05493546877257455 -2.435960300534905e-18 -1.6593425199075343e-22 -2.435960300534905e-18 -0.05493546877257455" energy=-11.9371036316 Minim_Constant_Volume=T Minim_Hydrostatic_Strain=F pbc="T T T"
Ti       0.00000000       0.00000000      -0.00000000       22      -0.00000000      -0.00000000       0.00000000 
Ti       1.59759662       1.59759662       1.59759662       22      -0.00000000      -0.00000000       0.00000000 
2
Lattice="3.1661444203155127 -8.519801442135392e-23 -1.7589267493440804e-22 -8.519801442135392e-23 3.1661444203155127 0.0 -1.7589267493440804e-22 0.0 3.1661444203155127" Properties=species:S:1:pos:R:3:Z:I:1:forces:R:3 stress="-0.07884352261339538 -5.633101838641313e-23 -1.126620367728263e-22 -5.633101838641313e-23 -0.07884352261339546 7.2297805874458e-18 -1.126620367728263e-22 7.2297805874458e-18 -0.07884352261339546" energy=-11.8783137424 Minim_Constant_Volume=T Minim_Hydrostatic_Strain=F pbc="T T T"
Ti       0.00000000       0.00000000      -0.00000000       22       0.00000000       0.00000000       0.00000000 
Ti       1.58307221       1.58307221       1.58307221       22       0.00000000       0.00000000       0.00000000 
2
Lattice="3.136552554255312 -8.440172470848589e-23 -1.7424872197880952e-22 -8.440172470848589e-23 3.136552554255312 0.0 -1.7424872197880952e-22 0.0 3.136552554255312" Properties=species:S:1:pos:R:3:Z:I:1:forces:R:3 stress="-0.10285228062896365 -4.278013747661319e-39 -6.742965234135634e-39 -4.278013747661319e-39 -0.10285228062896351 -2.6861977935146413e-17 -6.742965234135634e-39 -2.6861977935146413e-17 -0.10285228062896351" energy=-11.7982896118 Minim_Constant_Volume=T Minim_Hydrostatic_Strain=F pbc="T T T"
Ti       0.00000000       0.00000000      -0.00000000       22       0.00000000      -0.00000000      -0.00000000 
Ti       1.56827628       1.56827628       1.56827628       22       0.00000000      -0.00000000       0.00000000 
2
Lattice="3.306418631521444 -8.897266354745916e-23 -1.8368549893668984e-22 -8.897266354745916e-23 3.306418631521444 0.0 -1.8368549893668984e-22 0.0 3.306418631521444" Properties=species:S:1:pos:R:3:Z:I:1:forces:R:3 stress="0.01545328613281719 8.635692491635788e-23 5.165274013688696e-23 8.635692491635788e-23 0.015453286132817188 -3.1574105876365117e-18 5.165274013688696e-23 -3.1574105876365117e-18 0.015453286132817184" energy=-11.9986892617 Minim_Constant_Volume=T Minim_Hydrostatic_Strain=F pbc="T T T"
Ti       0.00000000       0.00000000      -0.00000000       22       0.00000000      -0.00000000       0.00000000 
Ti       1.65320932       1.65320932       1.65320932       22      -0.00000000       0.00000000       0.00000000 
2
Lattice="3.333084449471014 -8.969021601526425e-23 -1.8516689757990034e-22 -8.969021601526425e-23 3.333084449471014 0.0 -1.8516689757990034e-22 0.0 3.333084449471014" Properties=species:S:1:pos:R:3:Z:I:1:forces:R:3 stress="0.029705022788097522 -3.1768479342033843e-23 1.5248870084176225e-22 -3.1768479342033843e-23 0.029705022788097498 -1.2366276693427785e-17 1.5248870084176225e-22 -1.2366276693427785e-17 0.0297050227880975" energy=-11.9786653323 Minim_Constant_Volume=T Minim_Hydrostatic_Strain=F pbc="T T T"
Ti       0.00000000       0.00000000      -0.00000000       22      -0.00000000      -0.00000000       0.00000000 
Ti       1.66654222       1.66654222       1.66654222       22      -0.00000000       0.00000000      -0.00000000 
2
Lattice="3.3593302895304347 -9.039646726695548e-23 -1.866249646801661e-22 -9.039646726695548e-23 3.3593302895304347 0.0 -1.866249646801661e-22 0.0 3.3593302895304347" Properties=species:S:1:pos:R:3:Z:I:1:forces:R:3 stress="0.04170161292137645 -3.002305509717732e-22 2.94345862984379e-38 -3.002305509717732e-22 0.041701612921376426 -1.5553057887035935e-17 2.94345862984379e-38 -1.5553057887035935e-17 0.04170161292137642" energy=-11.9469677621 Minim_Constant_Volume=T Minim_Hydrostatic_Strain=F pbc="T T T"
Ti       0.00000000       0.00000000      -0.00000000       22       0.00000000       0.00000000       0.00000000 
Ti       1.67966514       1.67966514       1.67966514       22       0.00000000       0.00000000       0.00000000 
2
Lattice="3.3851723072955813 -9.109185203465741e-23 -1.880605977489701e-22 -9.109185203465741e-23 3.3851723072955813 0.0 -1.880605977489701e-22 0.0 3.3851723072955813" Properties=species:S:1:pos:R:3:Z:I:1:forces:R:3 stress="0.0525561204082866 1.4783209798749242e-22 3.942189279666464e-22 1.4783209798749242e-22 0.05255612040828656 7.40705511030714e-18 3.942189279666464e-22 7.40705511030714e-18 0.052556120408286555" energy=-11.9053125895 Minim_Constant_Volume=T Minim_Hydrostatic_Strain=F pbc="T T T"
Ti       0.00000000       0.00000000      -0.00000000       22       0.00000000       0.00000000       0.00000000 
Ti       1.69258615       1.69258615       1.69258615       22      -0.00000000      -0.00000000       0.00000000 
2
Lattice="3.410625686389315 -9.17767788956008e-23 -1.8947464030059515e-22 -9.17767788956008e-23 3.410625686389315 0.0 -1.8947464030059515e-22 0.0 3.410625686389315" Properties=species:S:1:pos:R:3:Z:I:1:forces:R:3 stress="0.06204262339848768 1.0315727511603551e-22 4.854460005460495e-23 1.0315727511603551e-22 0.0620426233984877 1.7190402632285022e-17 4.854460005460495e-23 1.7190402632285022e-17 0.06204262339848772" energy=-11.8548925535 Minim_Constant_Volume=T Minim_Hydrostatic_Strain=F pbc="T T T"
Ti       0.00000000       0.00000000      -0.00000000       22      -0.00000000      -0.00000000       0.00000000 
Ti       1.70531284       1.70531284       1.70531284       22       0.00000000       0.00000000      -0.00000000 
2
Lattice="3.4357047170976442 -9.245163238814895e-23 -1.9086788622069458e-22 -9.245163238814895e-23 3.4357047170976442 0.0 -1.9086788622069458e-22 0.0 3.4357047170976442" Properties=species:S:1:pos:R:3:Z:I:1:forces:R:3 stress="0.07022576292925214 -4.185867096668102e-23 9.567696220955665e-23 -4.185867096668102e-23 0.07022576292925223 1.3393452178312602e-17 9.567696220955665e-23 1.3393452178312602e-17 0.07022576292925223" energy=-11.7963602799 Minim_Constant_Volume=T Minim_Hydrostatic_Strain=F pbc="T T T"
Ti       0.00000000       0.00000000      -0.00000000       22       0.00000000       0.00000000       0.00000000 
Ti       1.71785236       1.71785236       1.71785236       22       0.00000000       0.00000000       0.00000000 
