2
Lattice="3.2764913281489982 0.0 -5.679839906463925e-69 0.0 3.2764913281489982 0.0 -5.679839906463925e-69 0.0 3.2764913281489982" Properties=species:S:1:pos:R:3:Z:I:1:forces:R:3 stress="2.0802872392661967e-05 8.372000023573262e-35 7.176000020205652e-35 8.372000023573262e-35 2.0802872392661984e-05 1.4512969841330806e-103 7.176000020205652e-35 1.4512969841330806e-103 2.0802872392661988e-05" energy=-11.9952227845 Minim_Constant_Volume=T Minim_Hydrostatic_Strain=F pbc="T T T"
Ti      -0.00000000      -0.00000000       0.00000000       22       0.00000000       0.00000000      -0.00000000 
Ti       1.63824566       1.63824566       1.63824566       22       0.00000000       0.00000000      -0.00000000 
2
Lattice="3.24895648577692 0.0 -5.632107902664765e-69 0.0 3.24895648577692 0.0 -5.632107902664765e-69 0.0 3.24895648577692" Properties=species:S:1:pos:R:3:Z:I:1:forces:R:3 stress="-0.013942909089945683 -1.9461728951506236e-34 1.262333074699306e-87 -1.9461728951506236e-34 -0.013942909089945688 -3.095947740382618e-18 1.262333074699306e-87 -3.095947740382618e-18 -0.013942909089945683" energy=-11.9888542944 Minim_Constant_Volume=T Minim_Hydrostatic_Strain=F pbc="T T T"
Ti      -0.00000000      -0.00000000       0.00000000       22       0.00000000       0.00000000       0.00000000 
Ti       1.62447824       1.62447824       1.62447824       22       0.00000000       0.00000000       0.00000000 
2
Lattice="3.220946846426515 0.0 -5.583552832190043e-69 0.0 3.220946846426515 0.0 -5.583552832190043e-69 0.0 3.220946846426515" Properties=species:S:1:pos:R:3:Z:I:1:forces:R:3 stress="-0.0268530207394073 -1.7448540688168672e-34 -1.732647221067993e-34 -1.7448540688168672e-34 -0.0268530207394073 -3.024726995575712e-103 -1.732647221067993e-34 -3.024726995575712e-103 -0.0268530207394073" energy=-11.9708738749 Minim_Constant_Volume=T Minim_Hydrostatic_Strain=F pbc="T T T"
Ti      -0.00000000      -0.00000000       0.00000000       22      -0.00000000      -0.00000000      -0.00000000 
Ti       1.61047342       1.61047342       1.61047342       22       0.00000000       0.00000000      -0.00000000 
2
Lattice="3.1924413970867436 0.0 -5.534138268714549e-69 0.0 3.1924413970867436 0.0 -5.534138268714549e-69 0.0 3.1924413970867436" Properties=species:S:1:pos:R:3:Z:I:1:forces:R:3 stress="-0.03898637116470937 -2.6937300710791614e-85 2.2878377634175526e-85 -2.6937300710791614e-85 -0.03898637116470934 -8.65671338272852e-18 2.2878377634175526e-85 -8.65671338272852e-18 -0.038986371164709335" energy=-11.9418548421 Minim_Constant_Volume=T Minim_Hydrostatic_Strain=F pbc="T T T"
Ti      -0.00000000      -0.00000000       0.00000000       22       0.00000000       0.00000000       0.00000000 
Ti       1.59622070       1.59622070       1.59622070       22      -0.00000000      -0.00000000      -0.00000000 
2
Lattice="3.163417596080259 0.0 -5.483825135950353e-69 0.0 3.163417596080259 0.0 -5.483825135950353e-69 0.0 3.163417596080259" Properties=species:S:1:pos:R:3:Z:I:1:forces:R:3 stress="-0.04996956720409803 -4.811355446832182e-36 2.566056238310497e-35 -4.811355446832182e-36 -0.04996956720409803 -8.340546619587229e-105 2.566056238310497e-35 -8.340546619587229e-105 -0.04996956720409803" energy=-11.9026725956 Minim_Constant_Volume=T Minim_Hydrostatic_Strain=F pbc="T T T"
Ti      -0.00000000      -0.00000000       0.00000000       22       0.00000000      -0.00000000      -0.00000000 
Ti       1.58170880       1.58170880       1.58170880       22      -0.00000000       0.00000000       0.00000000 
2
Lattice="3.1338512158497696 0.0 -5.432571435114926e-69 0.0 3.1338512158497696 0.0 -5.432571435114926e-69 0.0 3.1338512158497696" Properties=species:S:1:pos:R:3:Z:I:1:forces:R:3 stress="-0.05997162072262687 0.0 6.536759145822233e-36 0.0 -0.05997162072262687 0.0 6.536759145822233e-36 0.0 -0.05997162072262687" energy=-11.8542024877 Minim_Constant_Volume=T Minim_Hydrostatic_Strain=F pbc="T T T"
Ti      -0.00000000      -0.00000000       0.00000000       22       0.00000000       0.00000000       0.00000000 
Ti       1.56692561       1.56692561       1.56692561       22       0.00000000       0.00000000       0.00000000 
2
Lattice="3.3035709969036176 0.0 -5.726782860936263e-69 0.0 3.3035709969036176 0.0 -5.726782860936263e-69 0.0 3.3035709969036176" Properties=species:S:1:pos:R:3:Z:I:1:forces:R:3 stress="0.01387491921730401 -4.7058917041009475e-35 -4.1176552410883294e-35 -4.7058917041009475e-35 0.013874919217304002 -8.157723863578801e-104 -4.1176552410883294e-35 -8.157723863578801e-104 0.013874919217304" energy=-11.9887702485 Minim_Constant_Volume=T Minim_Hydrostatic_Strain=F pbc="T T T"
Ti      -0.00000000      -0.00000000       0.00000000       22       0.00000000       0.00000000       0.00000000 
Ti       1.65178550       1.65178550       1.65178550       22       0.00000000       0.00000000       0.00000000 
2
Lattice="3.3302138490661024 0.0 -5.772968588221552e-69 0.0 3.3302138490661024 0.0 -5.772968588221552e-69 0.0 3.3302138490661024" Properties=species:S:1:pos:R:3:Z:I:1:forces:R:3 stress="0.024761720064238064 7.235774084365415e-36 2.894309633746165e-36 7.235774084365415e-36 0.024761720064238064 5.498206348927962e-18 2.894309633746165e-36 5.498206348927962e-18 0.024761720064238057" energy=-11.9716882749 Minim_Constant_Volume=T Minim_Hydrostatic_Strain=F pbc="T T T"
Ti      -0.00000000      -0.00000000       0.00000000       22       0.00000000      -0.00000000       0.00000000 
Ti       1.66510692       1.66510692       1.66510692       22       0.00000000       0.00000000      -0.00000000 
2
Lattice="3.356437085042055 0.0 -5.818426905444378e-69 0.0 3.356437085042055 0.0 -5.818426905444378e-69 0.0 3.356437085042055" Properties=species:S:1:pos:R:3:Z:I:1:forces:R:3 stress="0.03569565780020506 -2.2794086938264201e-35 -4.139820699848977e-87 -2.2794086938264201e-35 0.03569565780020506 -3.9513843211207675e-104 -4.139820699848977e-87 -3.9513843211207675e-104 0.03569565780020506" energy=-11.9451925421 Minim_Constant_Volume=T Minim_Hydrostatic_Strain=F pbc="T T T"
Ti      -0.00000000      -0.00000000       0.00000000       22       0.00000000       0.00000000       0.00000000 
Ti       1.67821854       1.67821854       1.67821854       22       0.00000000       0.00000000       0.00000000 
2
Lattice="3.382256846513434 0.0 -5.863185794418263e-69 0.0 3.382256846513434 0.0 -5.863185794418263e-69 0.0 3.382256846513434" Properties=species:S:1:pos:R:3:Z:I:1:forces:R:3 stress="0.048277937735645426 2.7498065480247443e-34 -8.97896015681549e-35 2.7498065480247443e-34 0.048277937735645426 1.071985561110665e-17 -8.97896015681549e-35 1.071985561110665e-17 0.048277937735645406" energy=-11.9084079217 Minim_Constant_Volume=T Minim_Hydrostatic_Strain=F pbc="T T T"
Ti      -0.00000000      -0.00000000       0.00000000       22       0.00000000       0.00000000      -0.00000000 
Ti       1.69112842       1.69112842       1.69112842       22      -0.00000000      -0.00000000      -0.00000000 
2
Lattice="3.4076883040262897 0.0 -5.907271553480125e-69 0.0 3.4076883040262897 0.0 -5.907271553480125e-69 0.0 3.4076883040262897" Properties=species:S:1:pos:R:3:Z:I:1:forces:R:3 stress="0.062318098737802544 3.09590432277776e-34 1.7690881844444338e-34 3.09590432277776e-34 0.062318098737802544 5.366790007358641e-103 1.7690881844444338e-34 5.366790007358641e-103 0.062318098737802544" energy=-11.8598437562 Minim_Constant_Volume=T Minim_Hydrostatic_Strain=F pbc="T T T"
Ti      -0.00000000      -0.00000000       0.00000000       22       0.00000000       0.00000000      -0.00000000 
Ti       1.70384415       1.70384415       1.70384415       22      -0.00000000      -0.00000000      -0.00000000 
2
Lattice="3.432745735559201 0.0 -5.95070893368968e-69 0.0 3.432745735559201 0.0 -5.95070893368968e-69 0.0 3.432745735559201" Properties=species:S:1:pos:R:3:Z:I:1:forces:R:3 stress="0.07624668045733898 -4.3583885534660827e-35 9.677566644641553e-51 -4.3583885534660827e-35 0.07624668045733894 -1.6930164038994934e-17 9.677566644641553e-51 -1.6930164038994934e-17 0.07624668045733893" energy=-11.7988353493 Minim_Constant_Volume=T Minim_Hydrostatic_Strain=F pbc="T T T"
Ti      -0.00000000      -0.00000000       0.00000000       22       0.00000000       0.00000000       0.00000000 
Ti       1.71637287       1.71637287       1.71637287       22       0.00000000       0.00000000       0.00000000 
