30
Lattice="4.495066899159725 0.0 0.0 2.2475334495798625 3.892842126382865 0.0 0.0 0.0 37.526550656539825" Properties=species:S:1:pos:R:3:Z:I:1 energy=-326.817412496 pbc="T T T"
W       0.05689402       0.00659642       2.08881107       74 
W       2.34049927       1.36558325       3.88953096       74 
W       4.51385183       2.65705443       2.95496447       74 
W       0.09335822       0.06481412       4.81983418       74 
W       2.34069081       1.36461285       6.61097089       74 
W       4.52065033       2.61772727       5.67827682       74 
W       0.01840002       0.07249494       7.60520319       74 
W       2.26185046       1.31968619       9.36825880       74 
W       4.56977268       2.69327628       8.50066133       74 
W       0.06951428       0.09484549      10.26575002       74 
W       2.26853998       1.36416193      12.17300611       74 
W       4.55890108       2.59855798      11.20403617       74 
W       0.00851882       0.08752703      13.10609238       74 
W       2.32037472       1.30014069      14.92128470       74 
W       4.58424755       2.62174910      14.02130864       74 
W       0.04075717       0.04151688      15.78306742       74 
W       2.34609945       1.32894350      17.61628130       74 
W       4.49621640       2.67539268      16.73121493       74 
W       0.04681286       0.07794490      18.54427997       74 
W       2.25836989       1.38578904      20.44510574       74 
W       4.55524651       2.65966182      19.48342602       74 
W       0.07320430       0.09590194      21.32171494       74 
W       2.32790477       1.34634230      23.17989027       74 
W       4.55458457       2.64250478      22.23482742       74 
W       0.04748054       0.04260348      24.10022287       74 
W       2.25923953       1.31096948      25.89039451       74 
W       4.50795582       2.66550550      24.99738556       74 
W       0.02901462       0.05350909      26.85475791       74 
W       2.30563616       1.30627981       1.12646819       74 
W       4.51422978       2.66789833       0.26141614       74 
30
Lattice="4.495066899159725 0.0 0.0 2.2475334495798625 3.892842126382865 0.0 0.0 0.0 37.526550656539825" Properties=species:S:1:pos:R:3:Z:I:1:forces:R:3 pbc="T T T"
W       0.05597815       0.01374136       2.07579107       74      -0.03968087       0.38895878      -0.79335719 
W       2.32983095       1.35875653       3.88196348       74      -0.49423507      -0.31115489      -0.40347733 
W       4.52604075       2.65236511       2.95098332       74       0.57908745      -0.24937629      -0.22398790 
W       0.08495198       0.06198664       4.81562227       74      -0.43437311      -0.15023103      -0.28407190 
W       2.32977758       1.36351280       6.61871540       74      -0.52641933      -0.07172337       0.35455700 
W       4.53397720       2.62912227       5.69109004       74       0.57977069       0.53371712       0.58753014 
W       0.02834148       0.06912721       7.58946428       74       0.50754546      -0.15587178      -0.73808142 
W       2.27297668       1.33256920       9.37454985       74       0.51632840       0.58870933       0.32463393 
W       4.56161375       2.68294855       8.48925874       74      -0.37239549      -0.51129356      -0.49599183 
W       0.06259320       0.08191250      10.28124023       74      -0.33841944      -0.58787810       0.70265363 
W       2.27642881       1.36026931      12.16691776       74       0.37859081      -0.21813098      -0.32243291 
W       4.55161429       2.61458534      11.21189346       74      -0.31784576       0.77225440       0.38140306 
W       0.02046293       0.07423936      13.09384023       74       0.58046101      -0.63152982      -0.57503983 
W       2.31208764       1.31336640      14.91688463       74      -0.36454465       0.61663544      -0.24000199 
W       4.57170710       2.62658699      14.01253178       74      -0.61475494       0.25715620      -0.47916337 
W       0.04547944       0.04037903      15.79321887       74       0.18108998       0.00541211       0.49317511 
W       2.33080743       1.33746480      17.62612141       74      -0.73256078       0.40322056       0.49661272 
W       4.51175110       2.66508654      16.73167876       74       0.75919847      -0.47741658       0.03501840 
W       0.04780686       0.07427601      18.55001562       74       0.05377648      -0.18973004       0.31785178 
W       2.27138732       1.38191497      20.43369657       74       0.62606819      -0.22240186      -0.53896490 
W       4.55288806       2.66243296      19.48326159       74      -0.11810571       0.10446576       0.03501132 
W       0.06738257       0.08778867      21.32380871       74      -0.27971968      -0.39366445       0.11109624 
W       2.31999839       1.34874142      23.18083736       74      -0.42969220       0.12163185       0.11267415 
W       4.55349514       2.64822666      22.24095318       74      -0.06829856       0.25428831       0.31678211 
W       0.04686522       0.04417516      24.10171177       74      -0.04289174       0.10388867       0.14078706 
W       2.26208204       1.31715214      25.89968052       74       0.18338347       0.36367463       0.49338644 
W       4.51350494       2.65979215      25.00556862       74       0.29861245      -0.29485862       0.50203161 
W       0.02790633       0.05140090      26.82906652       74      -0.05669790      -0.13201715      -1.67039118 
W       2.30237581       1.31283976       1.12661180       74      -0.18077599       0.38111943       0.03093845 
W       4.51670329       2.66283075       0.28146508       74       0.16749835      -0.29785407       1.32881861 
30
Lattice="4.495066899159725 0.0 0.0 2.2475334495798625 3.892842126382865 0.0 0.0 0.0 37.526550656539825" Properties=species:S:1:pos:R:3:Z:I:1:forces:R:3 pbc="T T T"
W       0.05373169       0.03548900       2.03166355       74      -0.00449230       0.07719517      -0.42227424 
W       2.30196069       1.34119389       3.85938090       74       0.11609040       0.08457919      -0.10300745 
W       4.55864965       2.63840575       2.93847945       74      -0.15750450       0.00155970      -0.02054200 
W       0.06060162       0.05357677       4.79988877       74       0.01180852      -0.00751826      -0.21613047 
W       2.30015931       1.35953490       6.63872269       74       0.12005747      -0.03728880      -0.15720136 
W       4.56679167       2.65920028       5.72424077       74      -0.26264773      -0.14390541      -0.20449465 
W       0.05681151       0.06033702       7.54787204       74      -0.03620652       0.03784140       0.14237599 
W       2.30208998       1.36579302       9.39274967       74      -0.14377548      -0.19212314      -0.02706929 
W       4.54059617       2.65422175       8.46118586       74       0.12475890       0.03476628       0.24478566 
W       0.04356657       0.04872545      10.32091140       74       0.06127783       0.20281108      -0.23202042 
W       2.29773569       1.34809007      12.14886515       74      -0.09463845      -0.01419106       0.01347836 
W       4.53362740       2.65803782      11.23334521       74       0.18670323      -0.19805300      -0.09218489 
W       0.05310848       0.03867814      13.06143718       74      -0.15045804       0.21491988       0.11949079 
W       2.29146852       1.34812632      14.90346682       74       0.13227586      -0.13559661      -0.05357237 
W       4.53714910       2.64098218      13.98574431       74       0.14130704      -0.01223155      -0.04853165 
W       0.05581218       0.04049764      15.82095591       74      -0.13326912       0.15901078      -0.05319325 
W       2.28957524       1.36017557      17.65399496       74       0.21098969      -0.13015244      -0.00054965 
W       4.55443599       2.63816455      16.73361004       74      -0.19395470       0.19099510       0.05016556 
W       0.05081456       0.06364043      18.56777216       74       0.01509150      -0.00795129       0.08114660 
W       2.30661791       1.36951137      20.40333737       74      -0.12340580      -0.06892478       0.20029873 
W       4.54625639       2.66840062      19.48509907       74       0.01525447      -0.12323539       0.13346413 
W       0.05164112       0.06564678      21.33002825       74       0.03839063       0.03840413       0.03295775 
W       2.29597129       1.35556666      23.18697029       74      -0.03730117      -0.01105816       0.21337896 
W       4.54970097       2.66260080      22.25871084       74      -0.06553374      -0.09648862       0.06165434 
W       0.04449270       0.04993376      24.10942034       74      -0.04332571       0.06365894       0.19005599 
W       2.27225722       1.33741204      25.92730010       74       0.09873810       0.08720789      -0.02454529 
W       4.53021057       2.64326172      25.03348393       74       0.04233781       0.01254573       0.29236772 
W       0.02472628       0.04406662      26.73641333       74       0.01461884      -0.02082947      -1.15677813 
W       2.29227717       1.33408350       1.12827849       74       0.00576263       0.09185879       0.11142840 
W       4.52597881       2.64623706       0.35511411       74       0.11105032      -0.09780605       0.92504612 
30
Lattice="4.495066899159725 0.0 0.0 2.2475334495798625 3.892842126382865 0.0 0.0 0.0 37.526550656539825" Properties=species:S:1:pos:R:3:Z:I:1:forces:R:3 pbc="T T T"
W       0.05343665       0.03863091       2.02146879       74      -0.00700848       0.04339318      -0.32743607 
W       2.30098501       1.34073808       3.85575413       74       0.12187751       0.09656108      -0.09188284 
W       4.55942587       2.63714743       2.93704947       74      -0.18305545       0.03539164       0.04839354 
W       0.05851450       0.05269066       4.79531954       74       0.03855767       0.00208784      -0.18397417 
W       2.29912741       1.35863718       6.63831890       74       0.13693813      -0.03014571      -0.17924707 
W       4.56613770       2.65995674       5.72441454       74      -0.26187185      -0.16819907      -0.21642701 
W       0.05892814       0.06004744       7.54597341       74      -0.07885378       0.03044841       0.15956507 
W       2.30276698       1.36616619       9.39403518       74      -0.15012330      -0.20835953      -0.05980557 
W       4.54040757       2.65202089       8.46204851       74       0.13501499       0.06901177       0.22826934 
W       0.04267601       0.04850897      10.32133140       74       0.08758313       0.20192581      -0.24939575 
W       2.29835806       1.34678314      12.14740780       74      -0.10340839       0.01801489       0.02762205 
W       4.53463355       2.65922290      11.23400753       74       0.17292833      -0.22633410      -0.11207573 
W       0.05396113       0.03848392      13.06008867       74      -0.16553275       0.22747495       0.13736033 
W       2.29139603       1.34947163      14.90143963       74       0.12948517      -0.14161227      -0.01727263 
W       4.53598863       2.64211967      13.98258035       74       0.16475672      -0.02276979       0.00761915 
W       0.05491090       0.04275690      15.82280789       74      -0.11807367       0.13117922      -0.08235595 
W       2.28878803       1.36041145      17.65660808       74       0.22914489      -0.13423660      -0.03114278 
W       4.55558202       2.63841269      16.73452092       74      -0.22103628       0.19993537       0.04447146 
W       0.05131652       0.06253124      18.57059834       74       0.00921707       0.00042968       0.05530449 
W       2.30814301       1.36736952      20.40341705       74      -0.15947668      -0.05006679       0.24642138 
W       4.54586081       2.66718714      19.48718177       74       0.02630100      -0.12318884       0.12502455 
W       0.05070608       0.06410585      21.33109764       74       0.04366046       0.05050008       0.03821721 
W       2.29322303       1.35604023      23.19061120       74       0.00457819      -0.02102589       0.20793362 
W       4.54838698       2.66257960      22.26129333       74      -0.05773020      -0.10356116       0.06091643 
W       0.04364416       0.05137678      24.11285538       74      -0.03355048       0.04485143       0.12929924 
W       2.27460793       1.34050854      25.92946676       74       0.07515355       0.04556712      -0.10030319 
W       4.53237582       2.64191239      25.04030731       74       0.01017006       0.04535504       0.23705362 
W       0.02464981       0.04312470      26.71114200       74       0.03013896       0.00221000      -0.98921837 
W       2.29145396       1.33734664       1.13006016       74       0.02919730       0.04577982       0.12657570 
W       4.52842416       2.64330208       0.37523725       74       0.09501817      -0.06061758       0.76048994 
30
Lattice="4.495066899159725 0.0 0.0 2.2475334495798625 3.892842126382865 0.0 0.0 0.0 37.526550656539825" Properties=species:S:1:pos:R:3:Z:I:1:forces:R:3 pbc="T T T"
W       0.05288882       0.04305905       2.00405803       74      -0.01074711       0.00221894      -0.15556165 
W       2.30159234       1.34173259       3.84963045       74       0.07550784       0.08230317      -0.08538167 
W       4.55733422       2.63645108       2.93676233       74      -0.15460509       0.07251448       0.21451986 
W       0.05667382       0.05166885       4.78682622       74       0.04500386       0.00921803      -0.11512770 
W       2.30006903       1.35707771       6.63475401       74       0.10238822      -0.02140690      -0.17233387 
W       4.56131177       2.65809988       5.72119628       74      -0.17744289      -0.14660217      -0.16040972 
W       0.05999197       0.06002825       7.54605510       74      -0.10377431       0.00039015       0.10937775 
W       2.30130860       1.36329643       9.39440496       74      -0.09857689      -0.16136980      -0.08826926 
W       4.54233601       2.65055790       8.46646326       74       0.10299810       0.08152088       0.11987889 
W       0.04316166       0.05127854      10.31789630       74       0.09612117       0.12285772      -0.18794981 
W       2.29748654       1.34574573      12.14609714       74      -0.07209549       0.05376167       0.02090975 
W       4.53845505       2.65695992      11.23291268       74       0.09581902      -0.17864279      -0.09956102 
W       0.05234383       0.04189849      13.06058708       74      -0.11760473       0.16285661       0.10319065 
W       2.29320969       1.34905577      14.89892149       74       0.07948448      -0.08500940       0.03443751 
W       4.53728938       2.64312695      13.97920937       74       0.13147341      -0.01234277       0.06830750 
W       0.05213084       0.04739805      15.82367199       74      -0.06055216       0.06440452      -0.08472995 
W       2.29150283       1.35860499      17.65924424       74       0.16653536      -0.08939668      -0.03896442 
W       4.55334075       2.64193127      16.73635150       74      -0.17238959       0.14608512       0.03307557 
W       0.05205653       0.06116494      18.57488705       74      -0.00020739       0.00033497       0.02837014 
W       2.30729113       1.36399249      20.40789522       74      -0.15385985      -0.02702268       0.25741086 
W       4.54587724       2.66368710      19.49175671       74       0.03032267      -0.09608675       0.09846886 
W       0.05018304       0.06295891      21.33318154       74       0.02504416       0.03302945       0.04927956 
W       2.29018029       1.35622115      23.19857157       74       0.04526529      -0.02602105       0.17468479 
W       4.54583628       2.66089711      22.26568220       74      -0.03887522      -0.08385351       0.07419931 
W       0.04211821       0.05374363      24.11864498       74      -0.01173264       0.01103745      -0.08758912 
W       2.27857946       1.34477104      25.92983086       74       0.03502916      -0.00770743      -0.19594938 
W       4.53501271       2.64122787      25.05234416       74      -0.02949447       0.07703618       0.12971661 
W       0.02520890       0.04222468      26.66445119       74       0.05463968       0.03515872      -0.58025834 
W       2.29112570       1.34178627       1.13457420       74       0.05337381      -0.01660447       0.14164516 
W       4.53291981       2.63894485       0.41158084       74       0.06295162      -0.00266166       0.39461312 
30
Lattice="4.495066899159725 0.0 0.0 2.2475334495798625 3.892842126382865 0.0 0.0 0.0 37.526550656539825" Properties=species:S:1:pos:R:3:Z:I:1:forces:R:3 pbc="T T T"
W       0.05214307       0.04699577       1.98504468       74      -0.01087775      -0.02865892       0.03999973 
W       2.30390124       1.34457156       3.84216774       74      -0.02137417       0.03324899      -0.06853746 
W       4.55178443       2.63760547       2.94201973       74      -0.05704853       0.08650531       0.42034178 
W       0.05613624       0.05100463       4.77660896       74       0.01318639       0.00865037      -0.02130823 
W       2.30334579       1.35518288       6.62742434       74       0.00886340      -0.01566043      -0.12368856 
W       4.55284433       2.65295076       5.71452269       74      -0.01854102      -0.06232862      -0.03997538 
W       0.05842012       0.06000696       7.54869826       74      -0.08013572      -0.04224981      -0.01421444 
W       2.29768243       1.35691810       9.39256977       74       0.01030121      -0.04377029      -0.08898063 
W       4.54648493       2.65121581       8.47316881       74       0.02481383       0.04500487      -0.06106193 
W       0.04590663       0.05662966      10.31040497       74       0.06388965      -0.02359054      -0.04361835 
W       2.29499361       1.34614220      12.14545837       74       0.00260163       0.06596378      -0.00817312 
W       4.54411337       2.65067824      11.22955262       74      -0.02394567      -0.04121622      -0.04438649 
W       0.04809346       0.04882784      13.06346266       74      -0.00506283       0.02366976       0.01345867 
W       2.29668558       1.34668542      14.89754040       74      -0.01120205       0.03022839       0.07333753 
W       4.54160694       2.64372180      13.97790279       74       0.03125613       0.02200043       0.09222233 
W       0.04826448       0.05301213      15.82241879       74       0.02592156      -0.01881841      -0.03853671 
W       2.29789786       1.35486036      17.66066682       74       0.01948811      -0.00047426      -0.00154706 
W       4.54720896       2.64853859      16.73878048       74      -0.03813722       0.02691144       0.01961660 
W       0.05269905       0.05996487      18.57936451       74      -0.01130592      -0.01131158       0.01554675 
W       2.30284338       1.36036823      20.41808980       74      -0.08142513      -0.01071173       0.19902319 
W       4.54661108       2.65829787      19.49816954       74       0.01627954      -0.03934348       0.05885556 
W       0.05030813       0.06271255      21.33621014       74      -0.01357342      -0.01530894       0.06592258 
W       2.28861165       1.35575284      23.20977986       74       0.05575881      -0.01957206       0.09647204 
W       4.54264680       2.65740772      22.27136389       74      -0.01214146      -0.03390216       0.08033436 
W       0.04050105       0.05607848      24.12114426       74       0.01553038      -0.02348540      -0.51763774 
W       2.28290049       1.34829972      25.92532686       74      -0.00751675      -0.04315073      -0.24877183 
W       4.53660711       2.64250007      25.06602356       74      -0.05287132       0.08058142      -0.00383694 
W       0.02705113       0.04232412      26.60980506       74       0.07170995       0.05816803       0.09216626 
W       2.29215363       1.34525186       1.14199948       74       0.05983906      -0.06122539       0.14238115 
W       4.53836947       2.63508498       0.45275311       74       0.02571934       0.05384618      -0.08540364 
30
Lattice="4.495066899159725 0.0 0.0 2.2475334495798625 3.892842126382865 0.0 0.0 0.0 37.526550656539825" Properties=species:S:1:pos:R:3:Z:I:1:forces:R:3 pbc="T T T"
W       0.05201458       0.04632207       1.98508000       74      -0.01004825      -0.01086973       0.04299485 
W       2.30473967       1.34584938       3.84128536       74      -0.04921976       0.01005527      -0.05198940 
W       4.54947170       2.63927225       2.94861537       74      -0.01125901       0.06256613       0.28092691 
W       0.05700141       0.05131981       4.77582492       74      -0.01201245       0.00273959      -0.00501667 
W       2.30470824       1.35489986       6.62442430       74      -0.02791699      -0.01832070      -0.08670114 
W       4.55069867       2.65067911       5.71227166       74       0.02343294      -0.01993783       0.01392391 
W       0.05634430       0.05974155       7.55009326       74      -0.04168216      -0.04664003      -0.06053043 
W       2.29653184       1.35465796       9.39065532       74       0.04132885       0.00038772      -0.06708824 
W       4.54788349       2.65275751       8.47392781       74      -0.00519261       0.00764880      -0.09779478 
W       0.04759725       0.05791568      10.30783015       74       0.03383896      -0.05879659       0.00486504 
W       2.29411496       1.34739348      12.14585020       74       0.02725139       0.04499302      -0.02035094 
W       4.54495114       2.64816458      11.22797200       74      -0.04195012       0.01524436      -0.01659801 
W       0.04658708       0.05094588      13.06495207       74       0.03182868      -0.01852589      -0.02047856 
W       2.29755804       1.34572883      14.89877045       74      -0.03153304       0.06154871       0.05882841 
W       4.54352143       2.64363648      13.97978173       74      -0.00954927       0.03495430       0.06033837 
W       0.04787036       0.05335365      15.82092843       74       0.03802834      -0.02378479      -0.00257884 
W       2.30008050       1.35375748      17.65993982       74      -0.03138265       0.02391004       0.02888887 
W       4.54477323       2.65038955      16.73923015       74       0.01554823      -0.01234979       0.01983541 
W       0.05251391       0.06003132      18.57947478       74      -0.01227005      -0.01768141       0.02504571 
W       2.30023401       1.36024670      20.42266285       74      -0.03354695      -0.01690233       0.14008956 
W       4.54708563       2.65706240      19.49954169       74       0.00199189      -0.01993997       0.05051790 
W       0.05065065       0.06318914      21.33717641       74      -0.02739069      -0.03548945       0.04748534 
W       2.28991643       1.35524068      23.21193341       74       0.02871049      -0.01166218       0.05658576 
W       4.54229503       2.65615224      22.27238212       74      -0.00762905      -0.01515056       0.06972456 
W       0.04062190       0.05583058      24.11390841       74       0.01510218      -0.02009601      -0.37768485 
W       2.28292034       1.34747533      25.92076694       74      -0.00333109      -0.02185335      -0.21686468 
W       4.53555497       2.64418613      25.06642741       74      -0.03198124       0.05395496      -0.00889320 
W       0.02827478       0.04331242      26.60891850       74       0.06121304       0.04868661       0.01881255 
W       2.29334090       1.34414936       1.14455102       74       0.04302372      -0.03941622       0.13300543 
W       4.53896000       2.63593009       0.45326645       74       0.02659669       0.04072733      -0.01929886 
30
Lattice="4.495066899159725 0.0 0.0 2.2475334495798625 3.892842126382865 0.0 0.0 0.0 37.526550656539825" Properties=species:S:1:pos:R:3:Z:I:1:forces:R:3 pbc="T T T"
W       0.05148933       0.04617635       1.98330903       74      -0.00394231       0.00729573       0.06473008 
W       2.30410444       1.34754466       3.83778779       74      -0.05893543      -0.01425219       0.01684331 
W       4.54659362       2.64263391       2.96322034       74       0.03594324       0.01553906       0.03198121 
W       0.05707964       0.05151554       4.77341779       74      -0.03695757      -0.00015173       0.03617429 
W       2.30526287       1.35376212       6.61825831       74      -0.05857539      -0.01865194      -0.02673008 
W       4.54852105       2.64760154       5.71004896       74       0.04990969       0.02874249       0.06937127 
W       0.05332494       0.05804030       7.54951435       74       0.01292989      -0.03634600      -0.09636975 
W       2.29647325       1.35203082       9.38683501       74       0.05384370       0.03926481      -0.03957760 
W       4.54937347       2.65414518       8.47238362       74      -0.03533699      -0.04392305      -0.10992188 
W       0.05030555       0.05780098      10.30493341       74      -0.00848229      -0.06740972       0.03594249 
W       2.29399301       1.34974804      12.14533783       74       0.04243236       0.00636940      -0.02000341 
W       4.54514383       2.64590285      11.22578417       74      -0.03367576       0.06478969       0.00839505 
W       0.04588944       0.05296919      13.06580141       74       0.05340358      -0.04042919      -0.04123205 
W       2.29774417       1.34666310      14.90129247       74      -0.03418174       0.06831020       0.02907457 
W       4.54523732       2.64485211      13.98277454       74      -0.04142581       0.03795157       0.01105227 
W       0.04816041       0.05380310      15.81963250       74       0.03364523      -0.01454900       0.04517706 
W       2.30162066       1.35313848      17.66067286       74      -0.06910857       0.03340175       0.06543016 
W       4.54259808       2.65236452      16.74061892       74       0.06197924      -0.04660959       0.02566262 
W       0.05208180       0.05929193      18.58115726       74      -0.01449107      -0.01771715       0.03184475 
W       2.29660518       1.35897671      20.43211457       74       0.02228826      -0.02207290       0.04190508 
W       4.54757038       2.65465266      19.50325912       74      -0.02352010       0.00645123       0.03743388 
W       0.05002018       0.06231243      21.33988479       74      -0.03258641      -0.04739933      -0.00143753 
W       2.29144813       1.35443296      23.21710519       74      -0.00943188      -0.00263099      -0.03836681 
W       4.54127003       2.65418519      22.27627075       74       0.00090301       0.00289427       0.01976490 
W       0.04092793       0.05541011      24.09674482       74       0.01228658      -0.01044470      -0.10512802 
W       2.28357444       1.34683804      25.90975803       74       0.00278048       0.00991549      -0.15478248 
W       4.53407543       2.64730121      25.06870426       74       0.00122421       0.00886667      -0.03421214 
W       0.03143286       0.04558626      26.59987754       74       0.03954680       0.03283250      -0.05294837 
W       2.29571672       1.34272788       1.15194453       74       0.01660161      -0.00496965       0.10032755 
W       4.54117829       2.63718333       0.45999876       74       0.02093340       0.02493226       0.04959957 
30
Lattice="4.495066899159725 0.0 0.0 2.2475334495798625 3.892842126382865 0.0 0.0 0.0 37.526550656539825" Properties=species:S:1:pos:R:3:Z:I:1:forces:R:3 pbc="T T T"
W       0.05112980       0.04668713       1.98251837       74       0.00145984       0.00736192       0.07689267 
W       2.30233280       1.34779382       3.83596636       74      -0.03297444      -0.01134862       0.06385144 
W       4.54640404       2.64418830       2.97046576       74       0.02870071      -0.00628294      -0.05991039 
W       0.05602471       0.05143857       4.77250288       74      -0.03197177       0.00189331       0.05231039 
W       2.30402063       1.35282822       6.61526303       74      -0.04355353      -0.01478970      -0.00543193 
W       4.54885660       2.64716716       5.71072254       74       0.02455277       0.02729424       0.05700505 
W       0.05267073       0.05647794       7.54686680       74       0.02245881      -0.01974032      -0.07223702 
W       2.29784164       1.35201358       9.38470882       74       0.02845930       0.02489010      -0.03177821 
W       4.54912400       2.65349617       8.46938564       74      -0.02883182      -0.04918513      -0.07234997 
W       0.05109011       0.05607370      10.30482178       74      -0.01577861      -0.03365416       0.01216585 
W       2.29501367       1.35071727      12.14442229       74       0.02778144      -0.00788192      -0.00734858 
W       4.54441747       2.64667474      11.22526059       74      -0.00416500       0.04684613       0.00135583 
W       0.04701441       0.05266659      13.06493801       74       0.03217199      -0.01393589      -0.02225075 
W       2.29692044       1.34886216      14.90267227       74      -0.01208386       0.03682593       0.01516590 
W       4.54474693       2.64632207      13.98382403       74      -0.02546005       0.02545509      -0.00511350 
W       0.04899568       0.05385186      15.82031855       74       0.01395852       0.00097438       0.05028387 
W       2.30048248       1.35378597      17.66267349       74      -0.04647439       0.01423035       0.06461547 
W       4.54335668       2.65207585      16.74177652       74       0.04334169      -0.03317890       0.03060981 
W       0.05170401       0.05843636      18.58286976       74      -0.01474688      -0.01057510       0.02796644 
W       2.29590774       1.35773054      20.43672679       74       0.02317396      -0.01855443      -0.00026636 
W       4.54727324       2.65368841      19.50573007       74      -0.03099840       0.00871173       0.03049974 
W       0.04888459       0.06068573      21.34126480       74      -0.02049315      -0.03401758      -0.02875402 
W       2.29152049       1.35413520      23.21906663       74      -0.01640810      -0.00255028      -0.08345674 