8
Lattice="5.460664119905182 -1.3159188388441223e-33 0.0 -1.3159188388441223e-33 5.460664119905182 1.754558451792163e-33 0.0 1.754558451792163e-33 5.460664119905182" Properties=species:S:1:pos:R:3:Z:I:1:forces:R:3 stress="-7.595750481142829e-05 -2.755740201643201e-34 2.2136077020886585e-68 -2.755740201643201e-34 -7.595750481142825e-05 2.7557402016432004e-34 2.2136077020886585e-68 2.7557402016432004e-34 -7.595750481142829e-05" energy=-1305.42103715 Minim_Constant_Volume=T Minim_Hydrostatic_Strain=F pbc="T T T"
Si       0.00000000      -0.00000000      -0.00000000       14       0.00000000      -0.00000000      -0.00000000 
Si       1.36516603       1.36516603       1.36516603       14       0.00000000      -0.00000000      -0.00000000 
Si       2.73033206       2.73033206      -0.00000000       14       0.00000000       0.00000000       0.00000000 
Si       4.09549809       4.09549809       1.36516603       14      -0.00000000       0.00000000       0.00000000 
Si       2.73033206      -0.00000000       2.73033206       14       0.00000000       0.00000000      -0.00000000 
Si       4.09549809       1.36516603       4.09549809       14       0.00000000      -0.00000000      -0.00000000 
Si       0.00000000       2.73033206       2.73033206       14      -0.00000000       0.00000000       0.00000000 
Si       1.36516603       4.09549809       4.09549809       14      -0.00000000      -0.00000000       0.00000000 
8
Lattice="5.414774016520293 -1.3048601745068386e-33 0.0 -1.3048601745068386e-33 5.414774016520293 1.739813566009118e-33 0.0 1.739813566009118e-33 5.414774016520293" Properties=species:S:1:pos:R:3:Z:I:1:forces:R:3 stress="-0.014821871446091315 -6.7876626929375e-35 2.286463622076298e-68 -6.7876626929375e-35 -0.014821871446091319 -4.3791372212499985e-36 2.286463622076298e-68 -4.3791372212499985e-36 -0.014821871446091314" energy=-1305.39139439 Minim_Constant_Volume=T Minim_Hydrostatic_Strain=F pbc="T T T"
Si       0.00000000      -0.00000000      -0.00000000       14       0.00000000       0.00000000      -0.00000000 
Si       1.35369350       1.35369350       1.35369350       14       0.00000000       0.00000000       0.00000000 
Si       2.70738701       2.70738701      -0.00000000       14      -0.00000000      -0.00000000       0.00000000 
Si       4.06108051       4.06108051       1.35369350       14      -0.00000000       0.00000000       0.00000000 
Si       2.70738701      -0.00000000       2.70738701       14      -0.00000000       0.00000000      -0.00000000 
Si       4.06108051       1.35369350       4.06108051       14      -0.00000000       0.00000000       0.00000000 
Si       0.00000000       2.70738701       2.70738701       14       0.00000000      -0.00000000       0.00000000 
Si       1.35369350       4.06108051       4.06108051       14      -0.00000000       0.00000000       0.00000000 
8
Lattice="5.368092607264542 -1.2936108201216248e-33 0.0 -1.2936108201216248e-33 5.368092607264542 1.724814426828833e-33 0.0 1.724814426828833e-33 5.368092607264542" Properties=species:S:1:pos:R:3:Z:I:1:forces:R:3 stress="-0.0317101827285105 -1.1406415644811566e-33 9.162449170471034e-68 -1.1406415644811566e-33 -0.0317101827285105 1.1406415644811566e-33 9.162449170471034e-68 1.1406415644811566e-33 -0.0317101827285105" energy=-1305.29745786 Minim_Constant_Volume=T Minim_Hydrostatic_Strain=F pbc="T T T"
Si       0.00000000      -0.00000000      -0.00000000       14       0.00000000      -0.00000000      -0.00000000 
Si       1.34202315       1.34202315       1.34202315       14       0.00000000       0.00000000       0.00000000 
Si       2.68404630       2.68404630      -0.00000000       14      -0.00000000       0.00000000      -0.00000000 
Si       4.02606946       4.02606946       1.34202315       14      -0.00000000      -0.00000000       0.00000000 
Si       2.68404630      -0.00000000       2.68404630       14       0.00000000      -0.00000000      -0.00000000 
Si       4.02606946       1.34202315       4.02606946       14      -0.00000000       0.00000000       0.00000000 
Si       0.00000000       2.68404630       2.68404630       14       0.00000000       0.00000000       0.00000000 
Si       1.34202315       4.02606946       4.02606946       14      -0.00000000      -0.00000000      -0.00000000 
8
Lattice="5.3205848714453845 -1.2821623363506901e-33 0.0 -1.2821623363506901e-33 5.3205848714453845 1.7095497818009204e-33 0.0 1.7095497818009204e-33 5.3205848714453845" Properties=species:S:1:pos:R:3:Z:I:1:forces:R:3 stress="-0.05103104326439966 -1.451377728159997e-34 1.1658504367643874e-68 -1.451377728159997e-34 -0.05103104326439966 1.451377728159997e-34 1.1658504367643874e-68 1.451377728159997e-34 -0.05103104326439966" energy=-1305.12992603 Minim_Constant_Volume=T Minim_Hydrostatic_Strain=F pbc="T T T"
Si       0.00000000      -0.00000000      -0.00000000       14       0.00000000      -0.00000000      -0.00000000 
Si       1.33014622       1.33014622       1.33014622       14      -0.00000000       0.00000000      -0.00000000 
Si       2.66029244       2.66029244      -0.00000000       14      -0.00000000       0.00000000       0.00000000 
Si       3.99043865       3.99043865       1.33014622       14      -0.00000000      -0.00000000      -0.00000000 
Si       2.66029244      -0.00000000       2.66029244       14      -0.00000000      -0.00000000       0.00000000 
Si       3.99043865       1.33014622       3.99043865       14      -0.00000000       0.00000000      -0.00000000 
Si       0.00000000       2.66029244       2.66029244       14       0.00000000      -0.00000000       0.00000000 
Si       1.33014622       3.99043865       3.99043865       14      -0.00000000      -0.00000000      -0.00000000 
8
Lattice="5.272213240665297 -1.2705056699065664e-33 0.0 -1.2705056699065664e-33 5.272213240665297 1.694007559875422e-33 0.0 1.694007559875422e-33 5.272213240665297" Properties=species:S:1:pos:R:3:Z:I:1:forces:R:3 stress="-0.07311416204583207 1.637434280390183e-51 -5.629504973325678e-85 1.637434280390183e-51 -0.07311416204583207 1.8413938673875222e-51 -5.629504973325678e-85 1.8413938673875222e-51 -0.07311416204583207" energy=-1304.87824036 Minim_Constant_Volume=T Minim_Hydrostatic_Strain=F pbc="T T T"
Si       0.00000000      -0.00000000      -0.00000000       14      -0.00000000       0.00000000       0.00000000 
Si       1.31805331       1.31805331       1.31805331       14      -0.00000000       0.00000000       0.00000000 
Si       2.63610662       2.63610662      -0.00000000       14       0.00000000      -0.00000000      -0.00000000 
Si       3.95415993       3.95415993       1.31805331       14      -0.00000000       0.00000000       0.00000000 
Si       2.63610662      -0.00000000       2.63610662       14       0.00000000       0.00000000      -0.00000000 
Si       3.95415993       1.31805331       3.95415993       14       0.00000000       0.00000000       0.00000000 
Si       0.00000000       2.63610662       2.63610662       14      -0.00000000      -0.00000000       0.00000000 
Si       1.31805331       3.95415993       3.95415993       14       0.00000000       0.00000000       0.00000000 
8
Lattice="5.222937336806484 -1.2586310904112778e-33 0.0 -1.2586310904112778e-33 5.222937336806484 1.6781747872150372e-33 0.0 1.6781747872150372e-33 5.222937336806484" Properties=species:S:1:pos:R:3:Z:I:1:forces:R:3 stress="-0.09832672302870264 -2.264832896102522e-51 3.629553599786165e-68 -2.264832896102522e-51 -0.09832672302870264 -1.5061546752407856e-34 3.629553599786165e-68 -1.5061546752407856e-34 -0.0983267230287026" energy=-1304.53041876 Minim_Constant_Volume=T Minim_Hydrostatic_Strain=F pbc="T T T"
Si       0.00000000      -0.00000000      -0.00000000       14      -0.00000000       0.00000000      -0.00000000 
Si       1.30573433       1.30573433       1.30573433       14       0.00000000      -0.00000000      -0.00000000 
Si       2.61146867       2.61146867      -0.00000000       14      -0.00000000       0.00000000      -0.00000000 
Si       3.91720300       3.91720300       1.30573433       14      -0.00000000       0.00000000      -0.00000000 
Si       2.61146867      -0.00000000       2.61146867       14      -0.00000000       0.00000000       0.00000000 
Si       3.91720300       1.30573433       3.91720300       14       0.00000000      -0.00000000      -0.00000000 
Si       0.00000000       2.61146867       2.61146867       14       0.00000000       0.00000000      -0.00000000 
Si       1.30573433       3.91720300       3.91720300       14       0.00000000       0.00000000      -0.00000000 
8
Lattice="5.5057956220937765 -1.3267946943538613e-33 0.0 -1.3267946943538613e-33 5.5057956220937765 1.7690595924718154e-33 0.0 1.7690595924718154e-33 5.5057956220937765" Properties=species:S:1:pos:R:3:Z:I:1:forces:R:3 stress="0.012797418260105843 1.355373632635375e-34 -1.0887330781836931e-68 1.355373632635375e-34 0.012797418260105843 -1.355373632635375e-34 -1.0887330781836931e-68 -1.355373632635375e-34 0.012797418260105843" energy=-1305.39455169 Minim_Constant_Volume=T Minim_Hydrostatic_Strain=F pbc="T T T"
Si       0.00000000      -0.00000000      -0.00000000       14      -0.00000000      -0.00000000      -0.00000000 
Si       1.37644891       1.37644891       1.37644891       14       0.00000000      -0.00000000      -0.00000000 
Si       2.75289781       2.75289781      -0.00000000       14       0.00000000      -0.00000000       0.00000000 
Si       4.12934672       4.12934672       1.37644891       14      -0.00000000       0.00000000       0.00000000 
Si       2.75289781      -0.00000000       2.75289781       14      -0.00000000      -0.00000000      -0.00000000 
Si       4.12934672       1.37644891       4.12934672       14       0.00000000      -0.00000000      -0.00000000 
Si       0.00000000       2.75289781       2.75289781       14       0.00000000      -0.00000000       0.00000000 
Si       1.37644891       4.12934672       4.12934672       14      -0.00000000      -0.00000000       0.00000000 
8
Lattice="5.550199117261216 -1.3374951136651982e-33 0.0 -1.3374951136651982e-33 5.550199117261216 1.7833268182202645e-33 0.0 1.7833268182202645e-33 5.550199117261216" Properties=species:S:1:pos:R:3:Z:I:1:forces:R:3 stress="0.024074003722832672 1.98594851446746e-52 -3.436244343071775e-85 1.98594851446746e-52 0.024074003722832672 -1.6211606654801445e-51 -3.436244343071775e-85 -1.6211606654801445e-51 0.02407400372283267" energy=-1305.31901503 Minim_Constant_Volume=T Minim_Hydrostatic_Strain=F pbc="T T T"
Si       0.00000000      -0.00000000      -0.00000000       14      -0.00000000      -0.00000000      -0.00000000 
Si       1.38754978       1.38754978       1.38754978       14       0.00000000      -0.00000000       0.00000000 
Si       2.77509956       2.77509956      -0.00000000       14      -0.00000000       0.00000000       0.00000000 
Si       4.16264934       4.16264934       1.38754978       14      -0.00000000      -0.00000000      -0.00000000 
Si       2.77509956      -0.00000000       2.77509956       14       0.00000000       0.00000000      -0.00000000 
Si       4.16264934       1.38754978       4.16264934       14      -0.00000000      -0.00000000      -0.00000000 
Si       0.00000000       2.77509956       2.77509956       14       0.00000000       0.00000000       0.00000000 
Si       1.38754978       4.16264934       4.16264934       14       0.00000000      -0.00000000      -0.00000000 
8
Lattice="5.593903271937733 -1.3480270048805812e-33 0.0 -1.3480270048805812e-33 5.593903271937733 1.797369339840775e-33 0.0 1.797369339840775e-33 5.593903271937733" Properties=species:S:1:pos:R:3:Z:I:1:forces:R:3 stress="0.034056131604947706 3.413981842055075e-52 -7.754931217298969e-85 3.413981842055075e-52 0.034056131604947706 -3.9294747355304086e-52 -7.754931217298969e-85 -3.9294747355304086e-52 0.034056131604947706" energy=-1305.20030572 Minim_Constant_Volume=T Minim_Hydrostatic_Strain=F pbc="T T T"
Si       0.00000000      -0.00000000      -0.00000000       14      -0.00000000      -0.00000000      -0.00000000 
Si       1.39847582       1.39847582       1.39847582       14       0.00000000      -0.00000000      -0.00000000 
Si       2.79695164       2.79695164      -0.00000000       14      -0.00000000       0.00000000       0.00000000 
Si       4.19542745       4.19542745       1.39847582       14       0.00000000       0.00000000       0.00000000 
Si       2.79695164      -0.00000000       2.79695164       14      -0.00000000       0.00000000      -0.00000000 
Si       4.19542745       1.39847582       4.19542745       14      -0.00000000      -0.00000000      -0.00000000 
Si       0.00000000       2.79695164       2.79695164       14      -0.00000000       0.00000000       0.00000000 
Si       1.39847582       4.19542745       4.19542745       14       0.00000000       0.00000000       0.00000000 
8
Lattice="5.636934988164163 -1.3583968508932192e-33 0.0 -1.3583968508932192e-33 5.636934988164163 1.811195801190959e-33 0.0 1.811195801190959e-33 5.636934988164163" Properties=species:S:1:pos:R:3:Z:I:1:forces:R:3 stress="0.042977384956609445 -1.2930435515999981e-34 1.0386650974032653e-68 -1.2930435515999981e-34 0.042977384956609445 1.293043551599998e-34 1.0386650974032653e-68 1.293043551599998e-34 0.042977384956609445" energy=-1305.04317791 Minim_Constant_Volume=T Minim_Hydrostatic_Strain=F pbc="T T T"
Si       0.00000000      -0.00000000      -0.00000000       14       0.00000000      -0.00000000       0.00000000 
Si       1.40923375       1.40923375       1.40923375       14      -0.00000000      -0.00000000       0.00000000 
Si       2.81846749       2.81846749      -0.00000000       14      -0.00000000       0.00000000      -0.00000000 
Si       4.22770124       4.22770124       1.40923375       14       0.00000000      -0.00000000      -0.00000000 
Si       2.81846749      -0.00000000       2.81846749       14       0.00000000      -0.00000000       0.00000000 
Si       4.22770124       1.40923375       4.22770124       14      -0.00000000      -0.00000000       0.00000000 
Si       0.00000000       2.81846749       2.81846749       14      -0.00000000      -0.00000000      -0.00000000 
Si       1.40923375       4.22770124       4.22770124       14      -0.00000000       0.00000000      -0.00000000 
8
Lattice="5.679319549467366 -1.3686107445644522e-33 0.0 -1.3686107445644522e-33 5.679319549467366 1.8248143260859362e-33 0.0 1.8248143260859362e-33 5.679319549467366" Properties=species:S:1:pos:R:3:Z:I:1:forces:R:3 stress="0.050676745347348354 -2.6049870875752115e-51 5.418587657256942e-85 -2.6049870875752115e-51 0.050676745347348354 1.3274250916517087e-51 5.418587657256942e-85 1.3274250916517087e-51 0.050676745347348354" energy=-1304.85201001 Minim_Constant_Volume=T Minim_Hydrostatic_Strain=F pbc="T T T"
Si       0.00000000      -0.00000000      -0.00000000       14       0.00000000       0.00000000      -0.00000000 
Si       1.41982989       1.41982989       1.41982989       14      -0.00000000       0.00000000       0.00000000 
Si       2.83965977       2.83965977      -0.00000000       14      -0.00000000      -0.00000000       0.00000000 
Si       4.25948966       4.25948966       1.41982989       14       0.00000000      -0.00000000      -0.00000000 
Si       2.83965977      -0.00000000       2.83965977       14      -0.00000000       0.00000000       0.00000000 
Si       4.25948966       1.41982989       4.25948966       14       0.00000000       0.00000000      -0.00000000 
Si       0.00000000       2.83965977       2.83965977       14       0.00000000      -0.00000000       0.00000000 
Si       1.41982989       4.25948966       4.25948966       14      -0.00000000      -0.00000000      -0.00000000 
8
Lattice="5.721080751803907 -1.3786744202787514e-33 0.0 -1.3786744202787514e-33 5.721080751803907 1.8382325603716686e-33 0.0 1.8382325603716686e-33 5.721080751803907" Properties=species:S:1:pos:R:3:Z:I:1:forces:R:3 stress="0.05755940263555824 1.2552870523985699e-34 -1.008336375781994e-68 1.2552870523985699e-34 0.05755940263555824 -1.2552870523985699e-34 -1.008336375781994e-68 -1.2552870523985699e-34 0.05755940263555824" energy=-1304.6315587 Minim_Constant_Volume=T Minim_Hydrostatic_Strain=F pbc="T T T"
Si       0.00000000      -0.00000000      -0.00000000       14       0.00000000      -0.00000000      -0.00000000 
Si       1.43027019       1.43027019       1.43027019       14       0.00000000      -0.00000000      -0.00000000 
Si       2.86054038       2.86054038      -0.00000000       14      -0.00000000       0.00000000       0.00000000 
Si       4.29081056       4.29081056       1.43027019       14       0.00000000      -0.00000000       0.00000000 
Si       2.86054038      -0.00000000       2.86054038       14       0.00000000      -0.00000000      -0.00000000 
Si       4.29081056       1.43027019       4.29081056       14       0.00000000       0.00000000      -0.00000000 
Si       0.00000000       2.86054038       2.86054038       14       0.00000000       0.00000000       0.00000000 
Si       1.43027019       4.29081056       4.29081056       14       0.00000000       0.00000000      -0.00000000 
