2
Lattice="3.2778694013074103 0.0 -1.552211644341401e-36 0.0 3.2778694013074103 0.0 -1.552211644341401e-36 0.0 3.2778694013074103" Properties=species:S:1:pos:R:3:Z:I:1:forces:R:3 stress="0.0002922974077770434 1.468409335558948e-31 4.894697785196493e-32 1.468409335558948e-31 0.00029229740777704315 6.9535475342766995e-68 4.894697785196493e-32 6.9535475342766995e-68 0.0002922974077770432" energy=-12.0077324446 Minim_Constant_Volume=T Minim_Hydrostatic_Strain=F pbc="T T T"
Ti      -0.00000000       0.00000000      -0.00000000       22       0.00000000      -0.00000000      -0.00000000 
Ti       1.63893470       1.63893470       1.63893470       22       0.00000000      -0.00000000      -0.00000000 
2
Lattice="3.250322977941094 0.0 -1.5391672322937155e-36 0.0 3.250322977941094 0.0 -1.5391672322937155e-36 0.0 3.250322977941094" Properties=species:S:1:pos:R:3:Z:I:1:forces:R:3 stress="-0.016486687318775662 0.0 5.0648991184175313e-54 0.0 -0.016486687318775672 0.0 5.0648991184175313e-54 0.0 -0.016486687318775672" energy=-12.0004950653 Minim_Constant_Volume=T Minim_Hydrostatic_Strain=F pbc="T T T"
Ti      -0.00000000       0.00000000      -0.00000000       22       0.00000000       0.00000000       0.00000000 
Ti       1.62516149       1.62516149       1.62516149       22       0.00000000       0.00000000       0.00000000 
2
Lattice="3.2223015578996077 0.0 -1.5258978889629446e-36 0.0 3.2223015578996077 0.0 -1.5258978889629446e-36 0.0 3.2223015578996077" Properties=species:S:1:pos:R:3:Z:I:1:forces:R:3 stress="-0.03439527729948977 -1.5828028867819807e-33 -3.165605773563961e-33 -1.5828028867819807e-33 -0.03439527729948978 -7.495250026069488e-70 -3.165605773563961e-33 -7.495250026069488e-70 -0.03439527729948978" energy=-11.9782493045 Minim_Constant_Volume=T Minim_Hydrostatic_Strain=F pbc="T T T"
Ti      -0.00000000       0.00000000      -0.00000000       22      -0.00000000       0.00000000       0.00000000 
Ti       1.61115078       1.61115078       1.61115078       22       0.00000000       0.00000000      -0.00000000 
2
Lattice="3.193784119333964 0.0 -1.5123936596026388e-36 0.0 3.193784119333964 0.0 -1.5123936596026388e-36 0.0 3.193784119333964" Properties=species:S:1:pos:R:3:Z:I:1:forces:R:3 stress="-0.05481166603746488 0.0 4.64609881715693e-55 0.0 -0.05481166603746488 0.0 4.64609881715693e-55 0.0 -0.05481166603746488" energy=-11.9391927774 Minim_Constant_Volume=T Minim_Hydrostatic_Strain=F pbc="T T T"
Ti      -0.00000000       0.00000000      -0.00000000       22       0.00000000       0.00000000       0.00000000 
Ti       1.59689206       1.59689206       1.59689206       22       0.00000000       0.00000000       0.00000000 
2
Lattice="3.1647481110859155 0.0 -1.4986438652728719e-36 0.0 3.1647481110859155 0.0 -1.4986438652728719e-36 0.0 3.1647481110859155" Properties=species:S:1:pos:R:3:Z:I:1:forces:R:3 stress="-0.0786028751724688 1.3821998029041997e-55 -2.3816756752790426e-53 1.3821998029041997e-55 -0.07860287517246875 6.545308449502435e-92 -2.3816756752790426e-53 6.545308449502435e-92 -0.07860287517246875" energy=-11.8807334854 Minim_Constant_Volume=T Minim_Hydrostatic_Strain=F pbc="T T T"
Ti      -0.00000000       0.00000000      -0.00000000       22       0.00000000       0.00000000       0.00000000 
Ti       1.58237406       1.58237406       1.58237406       22       0.00000000       0.00000000       0.00000000 
2
Lattice="3.135169295408204 0.0 -1.4846370283615356e-36 0.0 3.135169295408204 0.0 -1.4846370283615356e-36 0.0 3.135169295408204" Properties=species:S:1:pos:R:3:Z:I:1:forces:R:3 stress="-0.1064919140030103 0.0 4.180008939084519e-33 0.0 -0.10649191400301045 0.0 4.180008939084519e-33 0.0 -0.10649191400301045" energy=-11.7995788054 Minim_Constant_Volume=T Minim_Hydrostatic_Strain=F pbc="T T T"
Ti      -0.00000000       0.00000000      -0.00000000       22      -0.00000000       0.00000000       0.00000000 
Ti       1.56758465       1.56758465       1.56758465       22       0.00000000      -0.00000000       0.00000000 
2
Lattice="3.304960459612897 0.0 -1.5650404215167625e-36 0.0 3.304960459612897 0.0 -1.5650404215167625e-36 0.0 3.304960459612897" Properties=species:S:1:pos:R:3:Z:I:1:forces:R:3 stress="0.01602372538704385 6.068194256652586e-56 3.5756036013879635e-55 6.068194256652586e-56 0.016023725387043847 2.8735500510010702e-92 3.5756036013879635e-55 2.8735500510010702e-92 0.016023725387043847" energy=-12.0002816403 Minim_Constant_Volume=T Minim_Hydrostatic_Strain=F pbc="T T T"
Ti      -0.00000000       0.00000000      -0.00000000       22       0.00000000       0.00000000       0.00000000 
Ti       1.65248023       1.65248023       1.65248023       22       0.00000000       0.00000000       0.00000000 
2
Lattice="3.331614517603737 0.0 -1.5776622603141933e-36 0.0 3.331614517603737 0.0 -1.5776622603141933e-36 0.0 3.331614517603737" Properties=species:S:1:pos:R:3:Z:I:1:forces:R:3 stress="0.02923141611984654 -9.254004829954328e-35 2.3135012074885818e-35 -9.254004829954328e-35 0.02923141611984654 -4.3821678948274706e-71 2.3135012074885818e-35 -4.3821678948274706e-71 0.02923141611984654" energy=-11.9802409681 Minim_Constant_Volume=T Minim_Hydrostatic_Strain=F pbc="T T T"
Ti      -0.00000000       0.00000000      -0.00000000       22       0.00000000      -0.00000000       0.00000000 
Ti       1.66580726       1.66580726       1.66580726       22       0.00000000       0.00000000      -0.00000000 
2
Lattice="3.3578487829199215 0.0 -1.5900853092887132e-36 0.0 3.3578487829199215 0.0 -1.5900853092887132e-36 0.0 3.3578487829199215" Properties=species:S:1:pos:R:3:Z:I:1:forces:R:3 stress="0.04124459433981261 -2.2774924908007775e-35 -2.2774924908007775e-35 -2.2774924908007775e-35 0.04124459433981263 -1.0784903030947596e-71 -2.2774924908007775e-35 -1.0784903030947596e-71 0.04124459433981263" energy=-11.9491465417 Minim_Constant_Volume=T Minim_Hydrostatic_Strain=F pbc="T T T"
Ti      -0.00000000       0.00000000      -0.00000000       22       0.00000000       0.00000000       0.00000000 
Ti       1.67892439       1.67892439       1.67892439       22       0.00000000       0.00000000       0.00000000 
2
Lattice="3.383679404032507 0.0 -1.602317215433459e-36 0.0 3.383679404032507 0.0 -1.602317215433459e-36 0.0 3.383679404032507" Properties=species:S:1:pos:R:3:Z:I:1:forces:R:3 stress="0.052311537995033734 -3.9235654580537956e-73 -1.674372808858176e-53 -3.9235654580537956e-73 0.05231153799503375 -1.8579764004318375e-109 -1.674372808858176e-53 -1.8579764004318375e-109 0.052311537995033776" energy=-11.9078854317 Minim_Constant_Volume=T Minim_Hydrostatic_Strain=F pbc="T T T"
Ti      -0.00000000       0.00000000      -0.00000000       22       0.00000000       0.00000000       0.00000000 
Ti       1.69183970       1.69183970       1.69183970       22       0.00000000       0.00000000       0.00000000 
2
Lattice="3.409121557868187 0.0 -1.614365165673672e-36 0.0 3.409121557868187 0.0 -1.614365165673672e-36 0.0 3.409121557868187" Properties=species:S:1:pos:R:3:Z:I:1:forces:R:3 stress="0.06225462264645268 1.1312646313016901e-31 1.8100234100827043e-31 1.1312646313016901e-31 0.06225462264645271 5.357022866248676e-68 1.8100234100827043e-31 5.357022866248676e-68 0.06225462264645271" energy=-11.8573599205 Minim_Constant_Volume=T Minim_Hydrostatic_Strain=F pbc="T T T"
Ti      -0.00000000       0.00000000      -0.00000000       22      -0.00000000       0.00000000      -0.00000000 
Ti       1.70456078       1.70456078       1.70456078       22      -0.00000000       0.00000000       0.00000000 
2
Lattice="3.4341895284107755 0.0 -1.6262359240878703e-36 0.0 3.4341895284107755 0.0 -1.6262359240878703e-36 0.0 3.4341895284107755" Properties=species:S:1:pos:R:3:Z:I:1:forces:R:3 stress="0.07096516302200355 2.1773623197532126e-34 -2.1773623197532126e-35 2.1773623197532126e-34 0.07096516302200356 1.031074375728058e-70 -2.1773623197532126e-35 1.031074375728058e-70 0.07096516302200356" energy=-11.7986230628 Minim_Constant_Volume=T Minim_Hydrostatic_Strain=F pbc="T T T"
Ti      -0.00000000       0.00000000      -0.00000000       22       0.00000000       0.00000000       0.00000000 
Ti       1.71709476       1.71709476       1.71709476       22      -0.00000000       0.00000000       0.00000000 
