4
Lattice="4.14644936395517 -6.665770964797925e-37 1.7904472528838226e-72 -6.665770964797925e-37 4.14644936395517 1.1994054844349377e-35 3.5808945057676463e-72 1.1994054844349377e-35 4.14644936395517" Properties=species:S:1:pos:R:3:Z:I:1:forces:R:3 stress="-0.0004296606224150724 1.0455011861689555e-34 -2.997213891179314e-70 1.0455011861689555e-34 -0.00042966062241507266 -1.6802697634858212e-35 -2.997213891179314e-70 -1.6802697634858212e-35 -0.0004296606224150724" energy=-15.7554412131 Minim_Constant_Volume=T Minim_Hydrostatic_Strain=F pbc="T T T"
Si       0.00000000       0.00000000       0.00000000       14       0.00000000       0.00000000       0.00000000 
Si       2.07322468       2.07322468       0.00000000       14      -0.00000000       0.00000000       0.00000000 
Si       2.07322468       0.00000000       2.07322468       14      -0.00000000       0.00000000       0.00000000 
Si      -0.00000000       2.07322468       2.07322468       14      -0.00000000       0.00000000       0.00000000 
4
Lattice="4.111603604206186 -6.60975343432951e-37 1.7754007662778205e-72 -6.60975343432951e-37 4.111603604206186 1.1893259702087307e-35 3.550801532555642e-72 1.1893259702087307e-35 4.111603604206186" Properties=species:S:1:pos:R:3:Z:I:1:forces:R:3 stress="-0.11958000008755658 -1.2151971241284134e-34 3.863062647456723e-70 -1.2151971241284134e-34 -0.1195800000875566 -2.1645698773537364e-34 3.863062647456723e-70 -2.1645698773537364e-34 -0.11958000008755658" energy=-15.6506298238 Minim_Constant_Volume=T Minim_Hydrostatic_Strain=F pbc="T T T"
Si       0.00000000       0.00000000       0.00000000       14       0.00000000      -0.00000000       0.00000000 
Si       2.05580180       2.05580180       0.00000000       14      -0.00000000       0.00000000      -0.00000000 
Si       2.05580180       0.00000000       2.05580180       14      -0.00000000       0.00000000       0.00000000 
Si      -0.00000000       2.05580180       2.05580180       14      -0.00000000       0.00000000      -0.00000000 
4
Lattice="4.076156981695296 -6.552769965729314e-37 1.7600948256216215e-72 -6.552769965729314e-37 4.076156981695296 1.1790726499068272e-35 3.520189651243244e-72 1.1790726499068272e-35 4.076156981695296" Properties=species:S:1:pos:R:3:Z:I:1:forces:R:3 stress="-0.2533670722538406 -2.62740088010638e-34 8.047265035813768e-70 -2.62740088010638e-34 -0.25336707225384053 -2.7819538730538137e-34 8.047265035813768e-70 -2.7819538730538137e-34 -0.2533670722538406" energy=-15.3205027686 Minim_Constant_Volume=T Minim_Hydrostatic_Strain=F pbc="T T T"
Si       0.00000000       0.00000000       0.00000000       14       0.00000000       0.00000000       0.00000000 
Si       2.03807849       2.03807849       0.00000000       14       0.00000000       0.00000000       0.00000000 
Si       2.03807849       0.00000000       2.03807849       14       0.00000000       0.00000000       0.00000000 
Si      -0.00000000       2.03807849       2.03807849       14       0.00000000       0.00000000       0.00000000 
4
Lattice="4.040082904139009 -6.494777809633815e-37 1.7445179483004032e-72 -6.494777809633815e-37 4.040082904139009 1.1686378314225925e-35 3.4890358966008074e-72 1.1686378314225925e-35 4.040082904139009" Properties=species:S:1:pos:R:3:Z:I:1:forces:R:3 stress="-0.4023648740363113 -1.7699100303938864e-35 5.119656870440892e-71 -1.7699100303938864e-35 -0.4023648740363122 2.49633180182175e-51 5.119656870440892e-71 2.49633180182175e-51 -0.4023648740363114" energy=-14.7384660916 Minim_Constant_Volume=T Minim_Hydrostatic_Strain=F pbc="T T T"
Si       0.00000000       0.00000000       0.00000000       14      -0.00000000       0.00000000      -0.00000000 
Si       2.02004145       2.02004145       0.00000000       14      -0.00000000      -0.00000000       0.00000000 
Si       2.02004145       0.00000000       2.02004145       14      -0.00000000       0.00000000      -0.00000000 
Si      -0.00000000       2.02004145       2.02004145       14      -0.00000000      -0.00000000       0.00000000 
4
Lattice="4.003352844703482 -6.4357311067248235e-37 1.7286578163556423e-72 -6.4357311067248235e-37 4.003352844703482 1.1580132630597052e-35 3.4573156327112856e-72 1.1580132630597052e-35 4.003352844703482" Properties=species:S:1:pos:R:3:Z:I:1:forces:R:3 stress="-0.567180680206993 -3.204508878853081e-35 9.26938975217736e-71 -3.204508878853081e-35 -0.567180680206993 -1.6200812786317168e-52 9.26938975217736e-71 -1.6200812786317168e-52 -0.567180680206993" energy=-13.8768753145 Minim_Constant_Volume=T Minim_Hydrostatic_Strain=F pbc="T T T"
Si       0.00000000       0.00000000       0.00000000       14       0.00000000       0.00000000       0.00000000 
Si       2.00167642       2.00167642       0.00000000       14       0.00000000       0.00000000       0.00000000 
Si       2.00167642       0.00000000       2.00167642       14       0.00000000       0.00000000       0.00000000 
Si      -0.00000000       2.00167642       2.00167642       14       0.00000000       0.00000000       0.00000000 
4
Lattice="3.9659361430482916 -6.375580567890372e-37 1.7125011905753128e-72 -6.375580567890372e-37 3.9659361430482916 1.1471900759819079e-35 3.4250023811506266e-72 1.1471900759819079e-35 3.9659361430482916" Properties=species:S:1:pos:R:3:Z:I:1:forces:R:3 stress="-0.7484705751645268 1.632630057671931e-35 -4.72255964885868e-71 1.632630057671931e-35 -0.7484705751645265 -5.687564026516211e-52 -4.72255964885868e-71 -5.687564026516211e-52 -0.7484705751645268" energy=-12.7069626294 Minim_Constant_Volume=T Minim_Hydrostatic_Strain=F pbc="T T T"
Si       0.00000000       0.00000000       0.00000000       14      -0.00000000      -0.00000000      -0.00000000 
Si       1.98296807       1.98296807       0.00000000       14      -0.00000000      -0.00000000       0.00000000 
Si       1.98296807       0.00000000       1.98296807       14       0.00000000      -0.00000000      -0.00000000 
Si      -0.00000000       1.98296807       1.98296807       14       0.00000000      -0.00000000      -0.00000000 
4
Lattice="4.180719094602416 -6.720862479361115e-37 1.805245008676481e-72 -6.720862479361115e-37 4.180719094602416 1.209318375991199e-35 3.610490017352963e-72 1.209318375991199e-35 4.180719094602416" Properties=species:S:1:pos:R:3:Z:I:1:forces:R:3 stress="0.10463806933797415 2.222146204299971e-34 -6.640365078102022e-70 2.222146204299971e-34 0.10463806933797415 1.322268815781801e-34 -6.640365078102022e-70 1.322268815781801e-34 0.10463806933797415" energy=-15.6605274433 Minim_Constant_Volume=T Minim_Hydrostatic_Strain=F pbc="T T T"
Si       0.00000000       0.00000000       0.00000000       14       0.00000000      -0.00000000      -0.00000000 
Si       2.09035955       2.09035955       0.00000000       14      -0.00000000       0.00000000       0.00000000 
Si       2.09035955       0.00000000       2.09035955       14       0.00000000      -0.00000000      -0.00000000 
Si      -0.00000000       2.09035955       2.09035955       14       0.00000000      -0.00000000      -0.00000000 
4
Lattice="4.214436027241301 -6.7750653239828425e-37 1.8198040649002802e-72 -6.7750653239828425e-37 4.214436027241301 1.2190713647234252e-35 3.6396081298005614e-72 1.2190713647234252e-35 4.214436027241301" Properties=species:S:1:pos:R:3:Z:I:1:forces:R:3 stress="0.19616902128035393 -4.3373208027254446e-35 1.9053943406598063e-70 -4.3373208027254446e-35 0.19616902128035393 -4.048166082543749e-34 1.9053943406598063e-70 -4.048166082543749e-34 0.19616902128035393" energy=-15.3905004194 Minim_Constant_Volume=T Minim_Hydrostatic_Strain=F pbc="T T T"
Si       0.00000000       0.00000000       0.00000000       14      -0.00000000      -0.00000000       0.00000000 
Si       2.10721801       2.10721801       0.00000000       14      -0.00000000      -0.00000000      -0.00000000 
Si       2.10721801       0.00000000       2.10721801       14      -0.00000000      -0.00000000      -0.00000000 
Si      -0.00000000       2.10721801       2.10721801       14      -0.00000000      -0.00000000      -0.00000000 
4
Lattice="4.247621929245431 -6.82841449157252e-37 1.8341338207618324e-72 -6.82841449157252e-37 4.247621929245431 1.2286707470806975e-35 3.6682676415236657e-72 1.2286707470806975e-35 4.247621929245431" Properties=species:S:1:pos:R:3:Z:I:1:forces:R:3 stress="0.27471071269709846 -4.2698121472452065e-35 1.3723712516797328e-70 -4.2698121472452065e-35 0.2747107126970984 -8.539624294490413e-35 1.3723712516797328e-70 -8.539624294490413e-35 0.27471071269709846" energy=-14.9689991051 Minim_Constant_Volume=T Minim_Hydrostatic_Strain=F pbc="T T T"
Si       0.00000000       0.00000000       0.00000000       14       0.00000000       0.00000000       0.00000000 
Si       2.12381096       2.12381096       0.00000000       14       0.00000000      -0.00000000       0.00000000 
Si       2.12381096       0.00000000       2.12381096       14       0.00000000       0.00000000       0.00000000 
Si      -0.00000000       2.12381096       2.12381096       14       0.00000000      -0.00000000       0.00000000 
4
Lattice="4.280297228157623 -6.880942821147302e-37 1.848243096925448e-72 -6.880942821147302e-37 4.280297228157623 1.2381224319514976e-35 3.696486193850897e-72 1.2381224319514976e-35 4.280297228157623" Properties=species:S:1:pos:R:3:Z:I:1:forces:R:3 stress="0.3408208691095484 9.360449614454348e-55 2.2532292872026464e-72 9.360449614454348e-55 0.3408208691095484 -1.401623487231504e-35 2.2532292872026464e-72 -1.401623487231504e-35 0.3408208691095484" energy=-14.418678716 Minim_Constant_Volume=T Minim_Hydrostatic_Strain=F pbc="T T T"
Si       0.00000000       0.00000000       0.00000000       14       0.00000000      -0.00000000      -0.00000000 
Si       2.14014861       2.14014861       0.00000000       14       0.00000000      -0.00000000       0.00000000 
Si       2.14014861       0.00000000       2.14014861       14      -0.00000000      -0.00000000      -0.00000000 
Si      -0.00000000       2.14014861       2.14014861       14       0.00000000       0.00000000       0.00000000 
4
Lattice="4.3124811225335025 -6.932681176022624e-37 1.8621401833756805e-72 -6.932681176022624e-37 4.3124811225335025 1.247431972726423e-35 3.724280366751362e-72 1.247431972726423e-35 4.3124811225335025" Properties=species:S:1:pos:R:3:Z:I:1:forces:R:3 stress="0.39507458440524457 -1.7259762732790644e-35 4.8815875473065446e-71 -1.7259762732790644e-35 0.39507458440524457 6.903905093116258e-36 4.8815875473065446e-71 6.903905093116258e-36 0.39507458440524457" energy=-13.7611859484 Minim_Constant_Volume=T Minim_Hydrostatic_Strain=F pbc="T T T"
Si       0.00000000       0.00000000       0.00000000       14      -0.00000000       0.00000000       0.00000000 
Si       2.15624056       2.15624056       0.00000000       14       0.00000000      -0.00000000       0.00000000 
Si       2.15624056       0.00000000       2.15624056       14       0.00000000      -0.00000000       0.00000000 
Si      -0.00000000       2.15624056       2.15624056       14       0.00000000      -0.00000000       0.00000000 
4
Lattice="4.344191681371052 -6.983658603653678e-37 1.8758328823512554e-72 -6.983658603653678e-37 4.344191681371052 1.256604596059263e-35 3.751665764702512e-72 1.256604596059263e-35 4.344191681371052" Properties=species:S:1:pos:R:3:Z:I:1:forces:R:3 stress="0.43807017097930173 6.803482425948946e-36 -1.9679811372774563e-71 6.803482425948946e-36 0.43807017097930173 -5.27284883199659e-53 -1.9679811372774563e-71 -5.27284883199659e-53 0.43807017097930173" energy=-13.0171226182 Minim_Constant_Volume=T Minim_Hydrostatic_Strain=F pbc="T T T"
Si       0.00000000       0.00000000       0.00000000       14       0.00000000       0.00000000       0.00000000 
Si       2.17209584       2.17209584       0.00000000       14       0.00000000       0.00000000       0.00000000 
Si       2.17209584       0.00000000       2.17209584       14       0.00000000       0.00000000       0.00000000 
Si      -0.00000000       2.17209584       2.17209584       14       0.00000000       0.00000000       0.00000000 
