2
Lattice="3.17777481162476 4.940937673872449e-28 -1.6678082770557723e-26 4.940937673872449e-28 3.17777481162476 -3.3517104627087546e-18 -1.6678082770557723e-26 -3.3517104627087546e-18 3.17777481162476" Properties=species:S:1:pos:R:3:Z:I:1:forces:R:3 stress="-0.00011555873323637957 2.0478310276864137e-26 -3.071746541529622e-26 2.0478310276864137e-26 -0.00011555873323637959 1.5288588384530734e-20 -3.071746541529622e-26 1.5288588384530734e-20 -0.00011555873323637959" energy=-22.4061466516 Minim_Constant_Volume=T Minim_Hydrostatic_Strain=F pbc="T T T"
W       0.00000000      -0.00000000      -0.00000000       74       0.00000000       0.00000000       0.00000000 
W       1.58888741       1.58888741       1.58888741       74       0.00000000       0.00000000       0.00000000 
2
Lattice="3.1510695590332696 4.899415226109037e-28 -1.6537924188048912e-26 4.899415226109037e-28 3.1510695590332696 -3.3235434968832518e-18 -1.6537924188048912e-26 -3.3235434968832518e-18 3.1510695590332696" Properties=species:S:1:pos:R:3:Z:I:1:forces:R:3 stress="-0.047709514471482466 -6.615612627005797e-45 2.1391690194357595e-43 -6.615612627005797e-45 -0.047709514471482514 1.69514401079885e-17 2.1391690194357595e-43 1.69514401079885e-17 -0.04770951447148253" energy=-22.3872782245 Minim_Constant_Volume=T Minim_Hydrostatic_Strain=F pbc="T T T"
W       0.00000000      -0.00000000      -0.00000000       74      -0.00000000      -0.00000000       0.00000000 
W       1.57553478       1.57553478       1.57553478       74      -0.00000000       0.00000000       0.00000000 
2
Lattice="3.12390381449254 4.857176786132399e-28 -1.6395348781410056e-26 4.857176786132399e-28 3.12390381449254 -3.2948908340603994e-18 -1.6395348781410056e-26 -3.2948908340603994e-18 3.12390381449254" Properties=species:S:1:pos:R:3:Z:I:1:forces:R:3 stress="-0.10124607681552425 -7.063562528561484e-27 -4.4147265803509304e-27 -7.063562528561484e-27 -0.10124607681552417 -3.086817224887105e-17 -4.4147265803509304e-27 -3.086817224887105e-17 -0.1012460768155242" energy=-22.3279859716 Minim_Constant_Volume=T Minim_Hydrostatic_Strain=F pbc="T T T"
W       0.00000000      -0.00000000      -0.00000000       74       0.00000000       0.00000000       0.00000000 
W       1.56195191       1.56195191       1.56195191       74       0.00000000       0.00000000       0.00000000 
2
Lattice="3.09625719808683 4.814190666394031e-28 -1.62502495896569e-26 4.814190666394031e-28 3.09625719808683 -3.2657309788288277e-18 -1.62502495896569e-26 -3.2657309788288277e-18 3.09625719808683" Properties=species:S:1:pos:R:3:Z:I:1:forces:R:3 stress="-0.16271584355118446 4.3141604463973807e-26 1.1504427857059682e-25 4.3141604463973807e-26 -0.16271584355118457 5.680812872103607e-17 1.1504427857059682e-25 5.680812872103607e-17 -0.16271584355118457" energy=-22.2227161343 Minim_Constant_Volume=T Minim_Hydrostatic_Strain=F pbc="T T T"
W       0.00000000      -0.00000000      -0.00000000       74       0.00000000       0.00000000       0.00000000 
W       1.54812860       1.54812860       1.54812860       74       0.00000000       0.00000000       0.00000000 
2
Lattice="3.0681078472908605 4.770422874121882e-28 -1.6102511870547533e-26 4.770422874121882e-28 3.0681078472908605 -3.2360408720169258e-18 -1.6102511870547533e-26 -3.2360408720169258e-18 3.0681078472908605" Properties=species:S:1:pos:R:3:Z:I:1:forces:R:3 stress="-0.23496379100084064 4.39368693043838e-26 7.32281155073063e-27 4.39368693043838e-26 -0.23496379100084064 3.163358932016546e-17 7.32281155073063e-27 3.163358932016546e-17 -0.23496379100084064" energy=-22.0640398403 Minim_Constant_Volume=T Minim_Hydrostatic_Strain=F pbc="T T T"
W       0.00000000      -0.00000000      -0.00000000       74       0.00000000      -0.00000000      -0.00000000 
W       1.53405392       1.53405392       1.53405392       74       0.00000000       0.00000000      -0.00000000 
2
Lattice="3.039432264492829 4.72583687424274e-28 -1.5952012300329395e-26 4.72583687424274e-28 3.039432264492829 -3.2057957298700247e-18 -1.5952012300329395e-26 -3.2057957298700247e-18 3.039432264492829" Properties=species:S:1:pos:R:3:Z:I:1:forces:R:3 stress="-0.32182980705449454 -2.238491331377239e-26 -2.2384913313772396e-26 -2.238491331377239e-26 -0.3218298070544946 1.8665587984284287e-16 -2.2384913313772396e-26 1.8665587984284287e-16 -0.32182980705449477" energy=-21.8418161627 Minim_Constant_Volume=T Minim_Hydrostatic_Strain=F pbc="T T T"
W       0.00000000      -0.00000000      -0.00000000       74       0.00000000       0.00000000       0.00000000 
W       1.51971613       1.51971613       1.51971613       74       0.00000000       0.00000000       0.00000000 
2
Lattice="3.204038604400975 4.981773721383452e-28 -1.6815924416286714e-26 4.981773721383452e-28 3.204038604400975 -3.3794118053956034e-18 -1.6815924416286714e-26 -3.3794118053956034e-18 3.204038604400975" Properties=species:S:1:pos:R:3:Z:I:1:forces:R:3 stress="0.043619769782724006 -3.076570534549499e-45 1.7074304981873337e-43 -3.076570534549499e-45 0.04361976978272397 -6.303542875676329e-18 1.7074304981873337e-43 -6.303542875676329e-18 0.04361976978272397" energy=-22.3883646701 Minim_Constant_Volume=T Minim_Hydrostatic_Strain=F pbc="T T T"
W       0.00000000      -0.00000000      -0.00000000       74       0.00000000       0.00000000       0.00000000 
W       1.60201930       1.60201930       1.60201930       74       0.00000000       0.00000000       0.00000000 
2
Lattice="3.2298787413134136 5.021951050973214e-28 -1.695154256665145e-26 5.021951050973214e-28 3.2298787413134136 -3.406666303395405e-18 -1.695154256665145e-26 -3.406666303395405e-18 3.2298787413134136" Properties=species:S:1:pos:R:3:Z:I:1:forces:R:3 stress="0.08244839917376086 -2.0710685747025487e-42 -1.3215288862938975e-26 -2.0710685747025487e-42 0.08244839917376084 -1.0624941256970692e-17 -1.3215288862938975e-26 -1.0624941256970692e-17 0.08244839917376086" energy=-22.3374663393 Minim_Constant_Volume=T Minim_Hydrostatic_Strain=F pbc="T T T"
W       0.00000000      -0.00000000      -0.00000000       74       0.00000000       0.00000000       0.00000000 
W       1.61493937       1.61493937       1.61493937       74       0.00000000       0.00000000       0.00000000 
2
Lattice="3.2553119045413323 5.061495600794326e-28 -1.7085024775611202e-26 5.061495600794326e-28 3.2553119045413323 -3.433491551987268e-18 -1.7085024775611202e-26 -3.433491551987268e-18 3.2553119045413323" Properties=species:S:1:pos:R:3:Z:I:1:forces:R:3 stress="0.11618575182613715 1.626199775241268e-27 -9.757198651447606e-27 1.626199775241268e-27 0.11618575182613705 -1.8404581988814425e-17 -9.757198651447606e-27 -1.8404581988814425e-17 0.11618575182613711" energy=-22.2574377314 Minim_Constant_Volume=T Minim_Hydrostatic_Strain=F pbc="T T T"
W       0.00000000      -0.00000000      -0.00000000       74      -0.00000000       0.00000000       0.00000000 
W       1.62765595       1.62765595       1.62765595       74      -0.00000000       0.00000000      -0.00000000 
2
Lattice="3.2803537494383432 5.100431712447766e-28 -1.7216453207982176e-26 5.100431712447766e-28 3.2803537494383432 -3.459904063421307e-18 -1.7216453207982176e-26 -3.459904063421307e-18 3.2803537494383432" Properties=species:S:1:pos:R:3:Z:I:1:forces:R:3 stress="0.14445067953376975 2.4021991473809806e-27 -6.456729121401888e-44 2.4021991473809806e-27 0.14445067953376972 -4.931985322408606e-17 -6.456729121401888e-44 -4.931985322408606e-17 0.14445067953376964" energy=-22.1525115882 Minim_Constant_Volume=T Minim_Hydrostatic_Strain=F pbc="T T T"
W       0.00000000      -0.00000000      -0.00000000       74      -0.00000000      -0.00000000       0.00000000 
W       1.64017687       1.64017687       1.64017687       74       0.00000000       0.00000000      -0.00000000 
2
Lattice="3.305018989481238 5.138782263064893e-28 -1.73459050852789e-26 5.138782263064893e-28 3.305018989481238 -3.4859193565171466e-18 -1.73459050852789e-26 -3.4859193565171466e-18 3.305018989481238" Properties=species:S:1:pos:R:3:Z:I:1:forces:R:3 stress="0.16702459374628348 -1.2621215386768212e-26 -1.0096972309414557e-25 -1.2621215386768212e-26 0.16702459374628315 1.4831242912730507e-17 -1.0096972309414557e-25 1.4831242912730507e-17 0.1670245937462832" energy=-22.0272057261 Minim_Constant_Volume=T Minim_Hydrostatic_Strain=F pbc="T T T"
W       0.00000000      -0.00000000      -0.00000000       74       0.00000000       0.00000000       0.00000000 
W       1.65250949       1.65250949       1.65250949       74       0.00000000       0.00000000       0.00000000 
2
Lattice="3.3293214724712605 5.176568783788384e-28 -1.747345308564537e-26 5.176568783788384e-28 3.3293214724712605 -3.51155203703607e-18 -1.747345308564537e-26 -3.51155203703607e-18 3.3293214724712605" Properties=species:S:1:pos:R:3:Z:I:1:forces:R:3 stress="0.18960974980904516 -2.3320556243128398e-27 -9.32822249725137e-27 -2.3320556243128398e-27 0.18960974980904505 -1.1169836716287346e-16 -9.32822249725137e-27 -1.1169836716287346e-16 0.1896097498090452" energy=-21.8843620522 Minim_Constant_Volume=T Minim_Hydrostatic_Strain=F pbc="T T T"
W       0.00000000      -0.00000000      -0.00000000       74       0.00000000       0.00000000       0.00000000 
W       1.66466074       1.66466074       1.66466074       74       0.00000000       0.00000000       0.00000000 
