2
Lattice="3.1813655899702797 4.789831437200259e-30 1.1978007266017227e-30 4.789831437200259e-30 3.1813655899702797 -3.50331918761755e-19 1.1978007266017227e-30 -3.50331918761755e-19 3.1813655899702797" Properties=species:S:1:pos:R:3:Z:I:1:forces:R:3 stress="0.0005161500907232422 8.633463630979617e-44 1.702675750061496e-27 8.633463630979617e-44 0.0005161500907232427 5.773178494492878e-20 1.702675750061496e-27 5.773178494492878e-20 0.0005161500907232424" energy=-22.3956589816 Minim_Constant_Volume=T Minim_Hydrostatic_Strain=F pbc="T T T"
W      -0.00000000       0.00000000      -0.00000000       74       0.00000000       0.00000000       0.00000000 
W       1.59068279       1.59068279       1.59068279       74      -0.00000000      -0.00000000      -0.00000000 
2
Lattice="3.154630161344173 4.749578849781802e-30 1.1877346983730531e-30 4.749578849781802e-30 3.154630161344173 -3.473878138657222e-19 1.1877346983730531e-30 -3.473878138657222e-19 3.154630161344173" Properties=species:S:1:pos:R:3:Z:I:1:forces:R:3 stress="-0.047347108568527294 3.382145180253215e-30 1.691072590126607e-30 3.382145180253215e-30 -0.047347108568527224 -3.016662033759546e-18 1.691072590126607e-30 -3.016662033759546e-18 -0.047347108568527176" energy=-22.3768338116 Minim_Constant_Volume=T Minim_Hydrostatic_Strain=F pbc="T T T"
W      -0.00000000       0.00000000      -0.00000000       74      -0.00000000      -0.00000000      -0.00000000 
W       1.57731508       1.57731508       1.57731508       74      -0.00000000       0.00000000       0.00000000 
2
Lattice="3.127433720428458 4.708632166983467e-30 1.1774950966144484e-30 4.708632166983467e-30 3.127433720428458 -3.4439294230505313e-19 1.1774950966144484e-30 -3.4439294230505313e-19 3.127433720428458" Properties=species:S:1:pos:R:3:Z:I:1:forces:R:3 stress="-0.09995253372448186 4.674358633855125e-46 6.882447626801798e-30 4.674358633855125e-46 -0.09995253372448192 -9.03167069363105e-18 6.882447626801798e-30 -9.03167069363105e-18 -0.09995253372448183" energy=-22.3182040347 Minim_Constant_Volume=T Minim_Hydrostatic_Strain=F pbc="T T T"
W      -0.00000000       0.00000000      -0.00000000       74       0.00000000       0.00000000       0.00000000 
W       1.56371686       1.56371686       1.56371686       74       0.00000000       0.00000000       0.00000000 
2
Lattice="3.099755864278776 4.666960670341268e-30 1.167074239511013e-30 4.666960670341268e-30 3.099755864278776 -3.413450573078999e-19 1.167074239511013e-30 -3.413450573078999e-19 3.099755864278776" Properties=species:S:1:pos:R:3:Z:I:1:forces:R:3 stress="-0.1665851364888997 2.452066296117493e-29 3.502951851596418e-30 2.452066296117493e-29 -0.16658513648889967 7.166118444939349e-18 3.502951851596418e-30 7.166118444939349e-18 -0.16658513648889967" energy=-22.2119682677 Minim_Constant_Volume=T Minim_Hydrostatic_Strain=F pbc="T T T"
W      -0.00000000       0.00000000      -0.00000000       74       0.00000000       0.00000000       0.00000000 
W       1.54987793       1.54987793       1.54987793       74       0.00000000       0.00000000       0.00000000 
2
Lattice="3.0715747056659315 4.624531406667177e-30 1.1564638864068733e-30 4.624531406667177e-30 3.0715747056659315 -3.382417486529963e-19 1.1564638864068733e-30 -3.382417486529963e-19 3.0715747056659315" Properties=species:S:1:pos:R:3:Z:I:1:forces:R:3 stress="-0.2572134577526592 1.461258099653159e-26 4.383774298959475e-26 1.461258099653159e-26 -0.25721345775265936 -4.146554603339743e-18 4.383774298959475e-26 -4.146554603339743e-18 -0.2572134577526593" energy=-22.0436147792 Minim_Constant_Volume=T Minim_Hydrostatic_Strain=F pbc="T T T"
W      -0.00000000       0.00000000      -0.00000000       74       0.00000000       0.00000000       0.00000000 
W       1.53578735       1.53578735       1.53578735       74       0.00000000       0.00000000       0.00000000 
2
Lattice="3.0428667204266135 4.581308958221932e-30 1.1456551803319304e-30 4.581308958221932e-30 3.0428667204266135 -3.350804258599223e-19 1.1456551803319304e-30 -3.350804258599223e-19 3.0428667204266135" Properties=species:S:1:pos:R:3:Z:I:1:forces:R:3 stress="-0.3906208843224975 4.379057701015053e-46 1.7749794749904335e-33 4.379057701015053e-46 -0.3906208843224974 -1.6495239746457686e-17 1.7749794749904335e-33 -1.6495239746457686e-17 -0.3906208843224971" energy=-21.7863713079 Minim_Constant_Volume=T Minim_Hydrostatic_Strain=F pbc="T T T"
W      -0.00000000       0.00000000      -0.00000000       74       0.00000000       0.00000000      -0.00000000 
W       1.52143336       1.52143336       1.52143336       74      -0.00000000       0.00000000      -0.00000000 
2
Lattice="3.2076590599464105 4.829418616203452e-30 1.2077003550950906e-30 4.829418616203452e-30 3.2076590599464105 -3.5322735517958857e-19 1.2077003550950906e-30 -3.5322735517958857e-19 3.2076590599464105" Properties=species:S:1:pos:R:3:Z:I:1:forces:R:3 stress="0.04253549679574224 2.0098514208428785e-26 -3.9763299975359087e-44 2.0098514208428785e-26 0.04253549679574228 2.979728166399132e-18 -3.9763299975359087e-44 2.979728166399132e-18 0.04253549679574228" energy=-22.3781608944 Minim_Constant_Volume=T Minim_Hydrostatic_Strain=F pbc="T T T"
W      -0.00000000       0.00000000      -0.00000000       74       0.00000000       0.00000000       0.00000000 
W       1.60382953       1.60382953       1.60382953       74      -0.00000000       0.00000000      -0.00000000 
2
Lattice="3.2335283953419296 4.868367222527597e-30 1.2174402947081753e-30 4.868367222527597e-30 3.2335283953419296 -3.5607608590540504e-19 1.2174402947081753e-30 -3.5607608590540504e-19 3.2335283953419296" Properties=species:S:1:pos:R:3:Z:I:1:forces:R:3 stress="0.07987766633440693 -1.318547374628192e-26 -6.936810842582102e-48 -1.318547374628192e-26 0.07987766633440695 3.584448047349489e-18 -6.936810842582102e-48 3.584448047349489e-18 0.07987766633440693" energy=-22.3285271359 Minim_Constant_Volume=T Minim_Hydrostatic_Strain=F pbc="T T T"
W      -0.00000000       0.00000000      -0.00000000       74      -0.00000000      -0.00000000      -0.00000000 
W       1.61676420       1.61676420       1.61676420       74       0.00000000       0.00000000       0.00000000 
2
Lattice="3.258990297186393 4.9067024010716816e-30 1.2270268334656544e-30 4.9067024010716816e-30 3.258990297186393 -3.588799500562641e-19 1.2270268334656544e-30 -3.588799500562641e-19 3.258990297186393" Properties=species:S:1:pos:R:3:Z:I:1:forces:R:3 stress="0.11395274644453611 1.2088797190769196e-34 -1.934207550523177e-34 1.2088797190769196e-34 0.11395274644453621 1.0307612957629736e-17 -1.934207550523177e-34 1.0307612957629736e-17 0.11395274644453607" energy=-22.2503356925 Minim_Constant_Volume=T Minim_Hydrostatic_Strain=F pbc="T T T"
W      -0.00000000       0.00000000      -0.00000000       74       0.00000000       0.00000000       0.00000000 
W       1.62949515       1.62949515       1.62949515       74      -0.00000000      -0.00000000      -0.00000000 
2
Lattice="3.284060438523434 4.9444477490096206e-30 1.2364658723501468e-30 4.9444477490096206e-30 3.284060438523434 -3.616406735474351e-19 1.2364658723501468e-30 -3.616406735474351e-19 3.284060438523434" Properties=species:S:1:pos:R:3:Z:I:1:forces:R:3 stress="0.14520381324638934 2.380986538608661e-34 7.142959615825153e-34 2.380986538608661e-34 0.14520381324638948 1.3235471013762003e-17 7.142959615825153e-34 1.3235471013762003e-17 0.14520381324638937" energy=-22.1458215029 Minim_Constant_Volume=T Minim_Hydrostatic_Strain=F pbc="T T T"
W      -0.00000000       0.00000000      -0.00000000       74      -0.00000000      -0.00000000       0.00000000 
W       1.64203022       1.64203022       1.64203022       74       0.00000000       0.00000000      -0.00000000 
2
Lattice="3.3087535494555778 4.981625443832855e-30 1.24576295732203e-30 4.981625443832855e-30 3.3087535494555778 -3.643598784575302e-19 1.24576295732203e-30 -3.643598784575302e-19 3.3087535494555778" Properties=species:S:1:pos:R:3:Z:I:1:forces:R:3 stress="0.17295435085154998 -9.382322850794427e-35 1.876464570154169e-34 -9.382322850794427e-35 0.1729543508515499 9.7511523557797e-62 1.876464570154169e-34 9.7511523557797e-62 0.1729543508515499" energy=-22.0175036192 Minim_Constant_Volume=T Minim_Hydrostatic_Strain=F pbc="T T T"
W      -0.00000000       0.00000000      -0.00000000       74       0.00000000       0.00000000       0.00000000 
W       1.65437677       1.65437677       1.65437677       74       0.00000000       0.00000000       0.00000000 
2
Lattice="3.3330834934316163 5.018256358207848e-30 1.2549233080420332e-30 5.018256358207848e-30 3.3330834934316163 -3.6703909142926894e-19 1.2549233080420332e-30 -3.6703909142926894e-19 3.3330834934316163" Properties=species:S:1:pos:R:3:Z:I:1:forces:R:3 stress="0.2005238013743779 4.160632351689288e-34 3.6983398681683655e-34 4.160632351689288e-34 0.20052380137437806 2.6398041742643176e-17 3.6983398681683655e-34 2.6398041742643176e-17 0.20052380137437778" energy=-21.8674357324 Minim_Constant_Volume=T Minim_Hydrostatic_Strain=F pbc="T T T"
W      -0.00000000       0.00000000      -0.00000000       74       0.00000000      -0.00000000      -0.00000000 
W       1.66654175       1.66654175       1.66654175       74      -0.00000000      -0.00000000       0.00000000 
