8
Lattice="5.443830259443619 0.0 0.0 0.0 5.443830259443619 2.1599821334488013e-29 0.0 2.1599821334488013e-29 5.443830259443619" Properties=species:S:1:pos:R:3:Z:I:1:forces:R:3 stress="1.8661832782634e-06 4.117067703613991e-30 -1.6335543648846582e-59 4.117067703613991e-30 1.8661832782633996e-06 1.1472117583018228e-51 -1.6335543648846582e-59 1.1472117583018228e-51 1.8661832782634e-06" energy=-1305.37862218 Minim_Constant_Volume=T Minim_Hydrostatic_Strain=F pbc="T T T"
Si       0.00000000       0.00000000       0.00000000       14      -0.00000000      -0.00000000      -0.00000000 
Si       1.36095756       1.36095756       1.36095756       14      -0.00000000      -0.00000000      -0.00000000 
Si       2.72191513       2.72191513      -0.00000000       14       0.00000000       0.00000000       0.00000000 
Si       4.08287269       4.08287269       1.36095756       14      -0.00000000       0.00000000      -0.00000000 
Si       2.72191513      -0.00000000       2.72191513       14       0.00000000      -0.00000000      -0.00000000 
Si       4.08287269       1.36095756       4.08287269       14      -0.00000000      -0.00000000      -0.00000000 
Si      -0.00000000       2.72191513       2.72191513       14       0.00000000       0.00000000      -0.00000000 
Si       1.36095756       4.08287269       4.08287269       14      -0.00000000      -0.00000000      -0.00000000 
8
Lattice="5.398081623759358 0.0 0.0 0.0 5.398081623759358 2.1418301648902225e-29 0.0 2.1418301648902225e-29 5.398081623759358" Properties=species:S:1:pos:R:3:Z:I:1:forces:R:3 stress="-0.018180723914602574 -1.7326127788848948e-30 6.874594666290973e-60 -1.7326127788848948e-30 -0.018180723914602577 2.5162164489129e-47 6.874594666290973e-60 2.5162164489129e-47 -0.01818072391460257" energy=-1305.34240674 Minim_Constant_Volume=T Minim_Hydrostatic_Strain=F pbc="T T T"
Si       0.00000000       0.00000000       0.00000000       14       0.00000000      -0.00000000      -0.00000000 
Si       1.34952041       1.34952041       1.34952041       14      -0.00000000      -0.00000000      -0.00000000 
Si       2.69904081       2.69904081      -0.00000000       14      -0.00000000      -0.00000000      -0.00000000 
Si       4.04856122       4.04856122       1.34952041       14      -0.00000000      -0.00000000      -0.00000000 
Si       2.69904081      -0.00000000       2.69904081       14      -0.00000000      -0.00000000      -0.00000000 
Si       4.04856122       1.34952041       4.04856122       14      -0.00000000      -0.00000000      -0.00000000 
Si      -0.00000000       2.69904081       2.69904081       14       0.00000000      -0.00000000      -0.00000000 
Si       1.34952041       4.04856122       4.04856122       14      -0.00000000      -0.00000000      -0.00000000 
8
Lattice="5.35154412160214 0.0 0.0 0.0 5.35154412160214 2.1233651929119816e-29 0.0 2.1233651929119816e-29 5.35154412160214" Properties=species:S:1:pos:R:3:Z:I:1:forces:R:3 stress="-0.037798509382777415 0.0 0.0 0.0 -0.03779850938277741 -2.3505036148507468e-30 0.0 -2.3505036148507468e-30 -0.03779850938277742" energy=-1305.2300376 Minim_Constant_Volume=T Minim_Hydrostatic_Strain=F pbc="T T T"
Si       0.00000000       0.00000000       0.00000000       14       0.00000000       0.00000000      -0.00000000 
Si       1.33788603       1.33788603       1.33788603       14      -0.00000000      -0.00000000       0.00000000 
Si       2.67577206       2.67577206      -0.00000000       14      -0.00000000       0.00000000      -0.00000000 
Si       4.01365809       4.01365809       1.33788603       14      -0.00000000       0.00000000      -0.00000000 
Si       2.67577206      -0.00000000       2.67577206       14      -0.00000000       0.00000000      -0.00000000 
Si       4.01365809       1.33788603       4.01365809       14      -0.00000000      -0.00000000      -0.00000000 
Si      -0.00000000       2.67577206       2.67577206       14       0.00000000       0.00000000      -0.00000000 
Si       1.33788603       4.01365809       4.01365809       14      -0.00000000       0.00000000      -0.00000000 
8
Lattice="5.304182840239449 0.0 0.0 0.0 5.304182840239449 2.1045733649737038e-29 0.0 2.1045733649737038e-29 5.304182840239449" Properties=species:S:1:pos:R:3:Z:I:1:forces:R:3 stress="-0.05927985145261824 1.1963332576279426e-30 -4.746765308569814e-60 1.1963332576279426e-30 -0.05927985145261824 1.1963332576279424e-30 -4.746765308569814e-60 1.1963332576279424e-30 -0.05927985145261825" energy=-1305.03517184 Minim_Constant_Volume=T Minim_Hydrostatic_Strain=F pbc="T T T"
Si       0.00000000       0.00000000       0.00000000       14       0.00000000       0.00000000      -0.00000000 
Si       1.32604571       1.32604571       1.32604571       14       0.00000000       0.00000000       0.00000000 
Si       2.65209142       2.65209142      -0.00000000       14      -0.00000000      -0.00000000       0.00000000 
Si       3.97813713       3.97813713       1.32604571       14      -0.00000000       0.00000000       0.00000000 
Si       2.65209142      -0.00000000       2.65209142       14      -0.00000000       0.00000000      -0.00000000 
Si       3.97813713       1.32604571       3.97813713       14       0.00000000       0.00000000       0.00000000 
Si      -0.00000000       2.65209142       2.65209142       14       0.00000000       0.00000000       0.00000000 
Si       1.32604571       3.97813713       3.97813713       14       0.00000000       0.00000000      -0.00000000 
8
Lattice="5.255960327087725 0.0 0.0 0.0 5.255960327087725 2.0854398207826384e-29 0.0 2.0854398207826384e-29 5.255960327087725" Properties=species:S:1:pos:R:3:Z:I:1:forces:R:3 stress="-0.0832202792548721 6.091931285121818e-31 -2.4171331777353707e-60 6.091931285121818e-31 -0.08322027925487215 1.7443187095543614e-46 -2.4171331777353707e-60 1.7443187095543614e-46 -0.0832202792548721" energy=-1304.74847054 Minim_Constant_Volume=T Minim_Hydrostatic_Strain=F pbc="T T T"
Si       0.00000000       0.00000000       0.00000000       14      -0.00000000      -0.00000000       0.00000000 
Si       1.31399008       1.31399008       1.31399008       14      -0.00000000      -0.00000000       0.00000000 
Si       2.62798016       2.62798016      -0.00000000       14      -0.00000000       0.00000000      -0.00000000 
Si       3.94197025       3.94197025       1.31399008       14      -0.00000000       0.00000000      -0.00000000 
Si       2.62798016      -0.00000000       2.62798016       14      -0.00000000       0.00000000      -0.00000000 
Si       3.94197025       1.31399008       3.94197025       14      -0.00000000      -0.00000000       0.00000000 
Si      -0.00000000       2.62798016       2.62798016       14       0.00000000      -0.00000000      -0.00000000 
Si       1.31399008       3.94197025       3.94197025       14      -0.00000000       0.00000000       0.00000000 
8
Lattice="5.206836328504802 0.0 0.0 0.0 5.206836328504802 2.065948588652722e-29 0.0 2.065948588652722e-29 5.206836328504802" Properties=species:S:1:pos:R:3:Z:I:1:forces:R:3 stress="-0.10913512660629607 0.0 0.0 0.0 -0.10913512660629603 -2.8015158478438188e-46 0.0 -2.8015158478438188e-46 -0.1091351266062961" energy=-1304.36121516 Minim_Constant_Volume=T Minim_Hydrostatic_Strain=F pbc="T T T"
Si       0.00000000       0.00000000       0.00000000       14      -0.00000000       0.00000000      -0.00000000 
Si       1.30170908       1.30170908       1.30170908       14      -0.00000000      -0.00000000       0.00000000 
Si       2.60341816       2.60341816      -0.00000000       14      -0.00000000       0.00000000      -0.00000000 
Si       3.90512725       3.90512725       1.30170908       14       0.00000000      -0.00000000      -0.00000000 
Si       2.60341816      -0.00000000       2.60341816       14      -0.00000000       0.00000000      -0.00000000 
Si       3.90512725       1.30170908       3.90512725       14       0.00000000      -0.00000000       0.00000000 
Si      -0.00000000       2.60341816       2.60341816       14      -0.00000000       0.00000000       0.00000000 
Si       1.30170908       3.90512725       3.90512725       14      -0.00000000      -0.00000000       0.00000000 
8
Lattice="5.488822632509165 0.0 0.0 0.0 5.488822632509165 2.1778340350202096e-29 0.0 2.1778340350202096e-29 5.488822632509165" Properties=species:S:1:pos:R:3:Z:I:1:forces:R:3 stress="0.01697521218345602 1.1171995558243456e-30 -4.432781635487942e-60 1.1171995558243456e-30 0.016975212183456028 1.1171995558243456e-30 -4.432781635487942e-60 1.1171995558243456e-30 0.01697521218345602" energy=-1305.34401673 Minim_Constant_Volume=T Minim_Hydrostatic_Strain=F pbc="T T T"
Si       0.00000000       0.00000000       0.00000000       14       0.00000000       0.00000000       0.00000000 
Si       1.37220566       1.37220566       1.37220566       14      -0.00000000      -0.00000000       0.00000000 
Si       2.74441132       2.74441132      -0.00000000       14       0.00000000      -0.00000000       0.00000000 
Si       4.11661697       4.11661697       1.37220566       14       0.00000000      -0.00000000      -0.00000000 
Si       2.74441132      -0.00000000       2.74441132       14       0.00000000       0.00000000       0.00000000 
Si       4.11661697       1.37220566       4.11661697       14      -0.00000000      -0.00000000       0.00000000 
Si      -0.00000000       2.74441132       2.74441132       14       0.00000000      -0.00000000       0.00000000 
Si       1.37220566       4.11661697       4.11661697       14      -0.00000000      -0.00000000       0.00000000 
8
Lattice="5.533089242816953 0.0 0.0 0.0 5.533089242816953 2.1953979712225364e-29 0.0 2.1953979712225364e-29 5.533089242816953" Properties=species:S:1:pos:R:3:Z:I:1:forces:R:3 stress="0.03282897710433019 0.0 0.0 0.0 0.032828977104330206 -2.7747565971464983e-47 0.0 -2.7747565971464983e-47 0.0328289771043302" energy=-1305.24308008 Minim_Constant_Volume=T Minim_Hydrostatic_Strain=F pbc="T T T"
Si       0.00000000       0.00000000       0.00000000       14       0.00000000      -0.00000000      -0.00000000 
Si       1.38327231       1.38327231       1.38327231       14      -0.00000000      -0.00000000      -0.00000000 
Si       2.76654462       2.76654462      -0.00000000       14       0.00000000       0.00000000       0.00000000 
Si       4.14981693       4.14981693       1.38327231       14       0.00000000      -0.00000000       0.00000000 
Si       2.76654462      -0.00000000       2.76654462       14      -0.00000000      -0.00000000      -0.00000000 
Si       4.14981693       1.38327231       4.14981693       14      -0.00000000       0.00000000       0.00000000 
Si      -0.00000000       2.76654462       2.76654462       14       0.00000000       0.00000000       0.00000000 
Si       1.38327231       4.14981693       4.14981693       14      -0.00000000       0.00000000      -0.00000000 
8
Lattice="5.5766586685254795 0.0 0.0 0.0 5.5766586685254795 2.2126852811881234e-29 0.0 2.2126852811881234e-29 5.5766586685254795" Properties=species:S:1:pos:R:3:Z:I:1:forces:R:3 stress="0.04735356668767799 0.0 0.0 0.0 0.04735356668767799 2.7057086524811386e-31 0.0 2.7057086524811386e-31 0.04735356668767799" energy=-1305.08112578 Minim_Constant_Volume=T Minim_Hydrostatic_Strain=F pbc="T T T"
Si       0.00000000       0.00000000       0.00000000       14      -0.00000000      -0.00000000      -0.00000000 
Si       1.39416467       1.39416467       1.39416467       14      -0.00000000       0.00000000       0.00000000 
Si       2.78832933       2.78832933      -0.00000000       14       0.00000000       0.00000000       0.00000000 
Si       4.18249400       4.18249400       1.39416467       14      -0.00000000       0.00000000       0.00000000 
Si       2.78832933      -0.00000000       2.78832933       14       0.00000000      -0.00000000      -0.00000000 
Si       4.18249400       1.39416467       4.18249400       14       0.00000000       0.00000000       0.00000000 
Si      -0.00000000       2.78832933       2.78832933       14      -0.00000000       0.00000000       0.00000000 
Si       1.39416467       4.18249400       4.18249400       14      -0.00000000       0.00000000       0.00000000 
8
Lattice="5.619557728743325 0.0 0.0 0.0 5.619557728743325 2.229706606100219e-29 0.0 2.229706606100219e-29 5.619557728743325" Properties=species:S:1:pos:R:3:Z:I:1:forces:R:3 stress="0.06118978043028161 1.0658224763456628e-30 -4.2289296260498734e-60 1.0658224763456628e-30 0.06118978043028161 1.928233430392864e-48 -4.2289296260498734e-60 1.928233430392864e-48 0.06118978043028161" energy=-1304.86202673 Minim_Constant_Volume=T Minim_Hydrostatic_Strain=F pbc="T T T"
Si       0.00000000       0.00000000       0.00000000       14       0.00000000       0.00000000      -0.00000000 
Si       1.40488943       1.40488943       1.40488943       14      -0.00000000       0.00000000       0.00000000 
Si       2.80977886       2.80977886      -0.00000000       14       0.00000000       0.00000000       0.00000000 
Si       4.21466830       4.21466830       1.40488943       14       0.00000000       0.00000000       0.00000000 
Si       2.80977886      -0.00000000       2.80977886       14       0.00000000      -0.00000000       0.00000000 
Si       4.21466830       1.40488943       4.21466830       14      -0.00000000       0.00000000       0.00000000 
Si      -0.00000000       2.80977886       2.80977886       14      -0.00000000       0.00000000      -0.00000000 
Si       1.40488943       4.21466830       4.21466830       14      -0.00000000       0.00000000       0.00000000 
8
Lattice="5.661811629054561 0.0 0.0 0.0 5.661811629054561 2.2464719469339953e-29 0.0 2.2464719469339953e-29 5.661811629054561" Properties=species:S:1:pos:R:3:Z:I:1:forces:R:3 stress="0.07445388549221116 0.0 0.0 0.0 0.07445388549221116 -7.874800853974174e-31 0.0 -7.874800853974174e-31 0.07445388549221116" energy=-1304.58830691 Minim_Constant_Volume=T Minim_Hydrostatic_Strain=F pbc="T T T"
Si       0.00000000       0.00000000       0.00000000       14      -0.00000000       0.00000000       0.00000000 
Si       1.41545291       1.41545291       1.41545291       14      -0.00000000       0.00000000      -0.00000000 
Si       2.83090581       2.83090581      -0.00000000       14       0.00000000      -0.00000000      -0.00000000 
Si       4.24635872       4.24635872       1.41545291       14       0.00000000      -0.00000000      -0.00000000 
Si       2.83090581      -0.00000000       2.83090581       14       0.00000000      -0.00000000      -0.00000000 
Si       4.24635872       1.41545291       4.24635872       14       0.00000000      -0.00000000       0.00000000 
Si      -0.00000000       2.83090581       2.83090581       14      -0.00000000      -0.00000000      -0.00000000 
Si       1.41545291       4.24635872       4.24635872       14       0.00000000      -0.00000000       0.00000000 
8
Lattice="5.703444092058778 0.0 0.0 0.0 5.703444092058778 2.262990716251716e-29 0.0 2.262990716251716e-29 5.703444092058778" Properties=species:S:1:pos:R:3:Z:I:1:forces:R:3 stress="0.08721219307756913 -6.46687979426801e-32 2.5659038120353855e-61 -6.46687979426801e-32 0.08721219307756906 3.233439897134045e-32 2.5659038120353855e-61 3.233439897134045e-32 0.08721219307756915" energy=-1304.26212455 Minim_Constant_Volume=T Minim_Hydrostatic_Strain=F pbc="T T T"
Si       0.00000000       0.00000000       0.00000000       14      -0.00000000      -0.00000000      -0.00000000 
Si       1.42586102       1.42586102       1.42586102       14       0.00000000       0.00000000       0.00000000 
Si       2.85172205       2.85172205      -0.00000000       14       0.00000000      -0.00000000       0.00000000 
Si       4.27758307       4.27758307       1.42586102       14       0.00000000      -0.00000000       0.00000000 
Si       2.85172205      -0.00000000       2.85172205       14      -0.00000000      -0.00000000      -0.00000000 
Si       4.27758307       1.42586102       4.27758307       14      -0.00000000       0.00000000       0.00000000 
Si      -0.00000000       2.85172205       2.85172205       14       0.00000000      -0.00000000      -0.00000000 
Si       1.42586102       4.27758307       4.27758307       14      -0.00000000       0.00000000      -0.00000000 
