2
Lattice="2.93210714455522 8.354158547832868e-18 3.847845941601088e-33 -1.4660535722776094 2.5392792738026726 -9.973654375722481e-33 6.006932016989259e-33 -1.4499012155526424e-32 4.743112274642858" Properties=species:S:1:pos:R:3:Z:I:1:forces:R:3 stress="3.621292997170735e-05 6.216705801604373e-22 -2.3634789053969789e-32 6.216705801604373e-22 3.6212929971707306e-05 -2.7296589850001306e-33 -2.3634789053969789e-32 -2.7296589850001306e-33 1.1491831782133778e-05" energy=-12.1445683945 Minim_Constant_Volume=T Minim_Hydrostatic_Strain=F pbc="T T T"
Ti      -0.00000000       0.00000000       0.00000000       22       0.00000000      -0.00000000      -0.00000000 
Ti       0.00000000       1.69285285       2.37155614       22      -0.00000000       0.00000000       0.00000000 
2
Lattice="2.9023489169602397 -5.402238373953811e-18 -5.520128967187444e-33 -1.4511744584801192 2.513507892733821 -1.2108842532016372e-32 -9.177521543238129e-33 -2.71632519365639e-32 4.7198089356366815" Properties=species:S:1:pos:R:3:Z:I:1:forces:R:3 stress="-0.013609930877989585 2.1246639846071627e-18 -7.489082798768585e-35 2.1246639846071627e-18 -0.013609930877989576 4.687496803008749e-34 -7.489082798768585e-35 4.687496803008749e-34 -0.01362876943122754" energy=-12.1388987067 Minim_Constant_Volume=T Minim_Hydrostatic_Strain=F pbc="T T T"
Ti      -0.00000000       0.00000000       0.00000000       22       0.00000000      -0.00000000      -0.00000000 
Ti       0.00000000       1.67567193       2.35990447       22      -0.00000000       0.00000000       0.00000000 
2
Lattice="2.8761260334194088 -1.6671729679525807e-17 -4.8911723300568064e-33 -1.4380630167097037 2.4907982094269805 -2.4596314980021267e-32 -8.141667048811834e-33 -4.999334106266378e-32 4.683069746052899" Properties=species:S:1:pos:R:3:Z:I:1:forces:R:3 stress="-0.03724653570730293 8.973964469614213e-18 -1.907465570896235e-32 8.973964469614213e-18 -0.03724653570730288 -5.549613860582157e-32 -1.907465570896235e-32 -5.549613860582157e-32 -0.03726971522973419" energy=-12.1168115857 Minim_Constant_Volume=T Minim_Hydrostatic_Strain=F pbc="T T T"
Ti      -0.00000000       0.00000000       0.00000000       22       0.00000000       0.00000000       0.00000000 
Ti       0.00000000       1.66053214       2.34153487       22       0.00000000       0.00000000      -0.00000000 
2
Lattice="2.8490187805424054 3.808027445885493e-18 6.543388611718788e-33 -1.424509390271202 2.4673226398086863 -1.3367324274118988e-32 1.0492139998513908e-32 -1.8052131109183058e-32 4.647011502562166" Properties=species:S:1:pos:R:3:Z:I:1:forces:R:3 stress="-0.0597234356528514 2.865960169688622e-17 4.87211682028992e-33 2.865960169688622e-17 -0.0597234356528513 7.069249992496146e-33 4.87211682028992e-33 7.069249992496146e-33 -0.05974505918000617" energy=-12.073901695 Minim_Constant_Volume=T Minim_Hydrostatic_Strain=F pbc="T T T"
Ti      -0.00000000       0.00000000       0.00000000       22       0.00000000      -0.00000000       0.00000000 
Ti       0.00000000       1.64488176       2.32350575       22      -0.00000000       0.00000000      -0.00000000 
2
Lattice="2.8243366956534186 -1.2976084286180066e-16 2.411245165371764e-33 -1.4121683478267089 2.445947327276459 -2.9782428325955384e-32 3.7674947942812075e-33 -5.289273148250455e-32 4.600789956796583" Properties=species:S:1:pos:R:3:Z:I:1:forces:R:3 stress="-0.08963523714214805 -3.6424203598475754e-17 -9.190377109861248e-33 -3.6424203598475754e-17 -0.08963523714214801 1.331141467302576e-32 -9.190377109861248e-33 1.331141467302576e-32 -0.08964205608602772" energy=-12.0092484694 Minim_Constant_Volume=T Minim_Hydrostatic_Strain=F pbc="T T T"
Ti      -0.00000000       0.00000000       0.00000000       22      -0.00000000       0.00000000      -0.00000000 
Ti       0.00000000       1.63063155       2.30039498       22       0.00000000      -0.00000000       0.00000000 
2
Lattice="2.7970312372820607 1.0714642576238612e-16 -1.2569682400046527e-32 -1.3985156186410297 2.422300106664885 -5.15209742461791e-32 -2.0638388033312645e-32 -1.0782848290982513e-31 4.560750975966811" Properties=species:S:1:pos:R:3:Z:I:1:forces:R:3 stress="-0.12832418361290798 7.437135345772785e-17 1.0029239515477551e-33 7.437135345772785e-17 -0.12832418361290782 6.834951913255461e-33 1.0029239515477551e-33 6.834951913255461e-33 -0.12826622124742076" energy=-11.9132274401 Minim_Constant_Volume=T Minim_Hydrostatic_Strain=F pbc="T T T"
Ti      -0.00000000       0.00000000       0.00000000       22       0.00000000      -0.00000000       0.00000000 
Ti       0.00000000       1.61486674       2.28037549       22      -0.00000000       0.00000000      -0.00000000 
2
Lattice="2.9631244070009495 1.890303514086254e-17 -2.4059334219108978e-32 -1.481562203500474 2.5661410110365233 1.1983519070836386e-32 -3.9096112131036196e-32 3.5217423233518863e-34 4.760365513092004" Properties=species:S:1:pos:R:3:Z:I:1:forces:R:3 stress="0.010602443095616185 -2.1273786407860933e-18 1.0086669125453045e-33 -2.1273786407860933e-18 0.010602443095616176 2.393658019504639e-32 1.0086669125453045e-33 2.393658019504639e-32 0.010622507583716096" energy=-12.139792083 Minim_Constant_Volume=T Minim_Hydrostatic_Strain=F pbc="T T T"
Ti      -0.00000000       0.00000000       0.00000000       22      -0.00000000      -0.00000000       0.00000000 
Ti       0.00000000       1.71076067       2.38018276       22       0.00000000       0.00000000      -0.00000000 
2
Lattice="2.9897219485174142 5.1047290927303794e-17 -1.3631178991206362e-32 -1.4948609742587065 2.5891751576679933 -2.3035999867916344e-32 -2.245194865915945e-32 -5.493524276287641e-32 4.790156735266484" Properties=species:S:1:pos:R:3:Z:I:1:forces:R:3 stress="0.021902210025762855 -6.281579528159313e-18 1.8782335827772168e-32 -6.281579528159313e-18 0.02190221002576283 2.2336728687869193e-32 1.8782335827772168e-32 2.2336728687869193e-32 0.02186100639439259" energy=-12.1255302116 Minim_Constant_Volume=T Minim_Hydrostatic_Strain=F pbc="T T T"
Ti      -0.00000000       0.00000000       0.00000000       22       0.00000000       0.00000000      -0.00000000 
Ti       0.00000000       1.72611677       2.39507837       22       0.00000000       0.00000000      -0.00000000 
2
Lattice="3.011900051216949 7.179975308972543e-17 -1.7749223327926113e-31 -1.505950025608474 2.6083819580135312 -2.832475658014454e-32 -2.8496605223916888e-31 -2.1621918035358986e-31 4.832258537377818" Properties=species:S:1:pos:R:3:Z:I:1:forces:R:3 stress="0.03284044346265984 -1.6719794305773734e-17 1.2290649225387453e-32 -1.6719794305773734e-17 0.032840443462659824 5.072938996052788e-32 1.2290649225387453e-32 5.072938996052788e-32 0.032733095458601306" energy=-12.1011094745 Minim_Constant_Volume=T Minim_Hydrostatic_Strain=F pbc="T T T"
Ti      -0.00000000       0.00000000       0.00000000       22       0.00000000      -0.00000000      -0.00000000 
Ti       0.00000000       1.73892131       2.41612927       22      -0.00000000       0.00000000       0.00000000 
2
Lattice="3.0360420825637955 2.316133481114605e-16 -2.461474366766327e-31 -1.5180210412818969 2.629289570458861 -2.6575606307079573e-31 -3.953929963016934e-31 -7.198812766436111e-31 4.866313174749728" Properties=species:S:1:pos:R:3:Z:I:1:forces:R:3 stress="0.041768895094476656 -1.66273582551878e-17 2.2385981664291717e-32 -1.66273582551878e-17 0.04176889509447662 3.3000604394805907e-32 2.2385981664291717e-32 3.3000604394805907e-32 0.041775785986871095" energy=-12.0681729872 Minim_Constant_Volume=T Minim_Hydrostatic_Strain=F pbc="T T T"
Ti      -0.00000000       0.00000000       0.00000000       22      -0.00000000       0.00000000       0.00000000 
Ti       0.00000000       1.75285971       2.43315659       22       0.00000000      -0.00000000      -0.00000000 
2
Lattice="3.0568116638000977 4.71859491924019e-16 -4.003889669774732e-31 -1.5284058319000478 2.6472765554354636 -2.026194305327688e-31 -6.41821843137736e-31 -7.443006716589167e-31 4.909504315576298" Properties=species:S:1:pos:R:3:Z:I:1:forces:R:3 stress="0.05021711334867739 -9.378202543131942e-18 7.103034532552126e-32 -9.378202543131942e-18 0.05021711334867727 1.8234399911556032e-31 7.103034532552126e-32 1.8234399911556032e-31 0.05029735468532563" energy=-12.0274896332 Minim_Constant_Volume=T Minim_Hydrostatic_Strain=F pbc="T T T"
Ti      -0.00000000       0.00000000       0.00000000       22       0.00000000       0.00000000      -0.00000000 
Ti       0.00000000       1.76485104       2.45475216       22       0.00000000       0.00000000       0.00000000 
2
Lattice="3.07334760364908 6.96158217864098e-16 -7.516824618598347e-31 -1.5366738018245387 2.661597099420134 -1.098473136106917e-30 -1.202272371075872e-30 -2.7270790459221346e-30 4.964696510139811" Properties=species:S:1:pos:R:3:Z:I:1:forces:R:3 stress="0.05759742084242499 -2.600986638222495e-17 6.965817117365149e-32 -2.600986638222495e-17 0.0575974208424249 1.8370802465079162e-31 6.965817117365149e-32 1.8370802465079162e-31 0.057526897748765286" energy=-11.9798249691 Minim_Constant_Volume=T Minim_Hydrostatic_Strain=F pbc="T T T"
Ti      -0.00000000       0.00000000       0.00000000       22      -0.00000000      -0.00000000       0.00000000 
Ti       0.00000000       1.77439807       2.48234826       22       0.00000000       0.00000000      -0.00000000 
