2
Lattice="3.2803146170769923 2.2521644026095457e-23 0.0 2.2521644026095457e-23 3.2803146170769923 0.0 0.0 0.0 3.2803146170769923" Properties=species:S:1:pos:R:3:Z:I:1:forces:R:3 stress="8.159532908267901e-06 -7.847271400218976e-44 -5.2478093155147503e-23 -7.847271400218976e-44 8.15953290826789e-06 3.602986515548513e-46 -5.2478093155147503e-23 3.602986515548513e-46 8.15953290826789e-06" energy=-12.0072627284 Minim_Constant_Volume=T Minim_Hydrostatic_Strain=F pbc="T T T"
Ti       0.00000000       0.00000000       0.00000000       22       0.00000000       0.00000000       0.00000000 
Ti       1.64015731       1.64015731       1.64015731       22       0.00000000       0.00000000      -0.00000000 
2
Lattice="3.252747644707478 2.2332377565082445e-23 0.0 2.2332377565082445e-23 3.252747644707478 0.0 0.0 0.0 3.252747644707478" Properties=species:S:1:pos:R:3:Z:I:1:forces:R:3 stress="-0.01565166962687584 -4.591774807899561e-41 0.0 -4.591774807899561e-41 -0.015651669626875843 0.0 0.0 0.0 -0.015651669626875843" energy=-12.0004785369 Minim_Constant_Volume=T Minim_Hydrostatic_Strain=F pbc="T T T"
Ti       0.00000000       0.00000000       0.00000000       22      -0.00000000      -0.00000000       0.00000000 
Ti       1.62637382       1.62637382       1.62637382       22      -0.00000000       0.00000000       0.00000000 
2
Lattice="3.2247053213261134 2.2139847488372148e-23 0.0 2.2139847488372148e-23 3.2247053213261134 0.0 0.0 0.0 3.2247053213261134" Properties=species:S:1:pos:R:3:Z:I:1:forces:R:3 stress="-0.03496229612050244 9.183549615799121e-41 -2.172145772006469e-22 9.183549615799121e-41 -0.03496229612050243 1.4913293254020145e-45 -2.172145772006469e-22 1.4913293254020145e-45 -0.03496229612050242" energy=-11.9782998467 Minim_Constant_Volume=T Minim_Hydrostatic_Strain=F pbc="T T T"
Ti       0.00000000       0.00000000       0.00000000       22       0.00000000       0.00000000       0.00000000 
Ti       1.61235266       1.61235266       1.61235266       22       0.00000000       0.00000000       0.00000000 
2
Lattice="3.1961666094020917 2.1943909358666516e-23 0.0 2.1943909358666516e-23 3.1961666094020917 0.0 0.0 0.0 3.1961666094020917" Properties=species:S:1:pos:R:3:Z:I:1:forces:R:3 stress="-0.056464645035255966 -4.422218644632493e-22 0.0 -4.422218644632493e-22 -0.056464645035256014 0.0 0.0 0.0 -0.056464645035256014" energy=-11.9381298762 Minim_Constant_Volume=T Minim_Hydrostatic_Strain=F pbc="T T T"
Ti       0.00000000       0.00000000       0.00000000       22       0.00000000       0.00000000       0.00000000 
Ti       1.59808330       1.59808330       1.59808330       22       0.00000000       0.00000000       0.00000000 
2
Lattice="3.1671089409545172 2.174440823106196e-23 0.0 2.174440823106196e-23 3.1671089409545172 0.0 0.0 0.0 3.1671089409545172" Properties=species:S:1:pos:R:3:Z:I:1:forces:R:3 stress="-0.07736910944179391 -1.013340837312806e-21 -1.1259342636808951e-21 -1.013340837312806e-21 -0.07736910944179401 7.730322741420704e-45 -1.1259342636808951e-21 7.730322741420704e-45 -0.07736910944179401" energy=-11.8781977533 Minim_Constant_Volume=T Minim_Hydrostatic_Strain=F pbc="T T T"
Ti       0.00000000       0.00000000       0.00000000       22       0.00000000       0.00000000       0.00000000 
Ti       1.58355447       1.58355447       1.58355447       22       0.00000000       0.00000000       0.00000000 
2
Lattice="3.137508060155324 2.1541177572408748e-23 0.0 2.1541177572408748e-23 3.137508060155324 0.0 0.0 0.0 3.137508060155324" Properties=species:S:1:pos:R:3:Z:I:1:forces:R:3 stress="-0.0984369563315691 -6.883678684039949e-22 0.0 -6.883678684039949e-22 -0.0984369563315691 0.0 0.0 0.0 -0.09843695633156911" energy=-11.7994084216 Minim_Constant_Volume=T Minim_Hydrostatic_Strain=F pbc="T T T"
Ti       0.00000000       0.00000000       0.00000000       22       0.00000000       0.00000000       0.00000000 
Ti       1.56875403       1.56875403       1.56875403       22       0.00000000       0.00000000       0.00000000 
2
Lattice="3.3074258846937337 2.2707781756660016e-23 0.0 2.2707781756660016e-23 3.3074258846937337 0.0 0.0 0.0 3.3074258846937337" Properties=species:S:1:pos:R:3:Z:I:1:forces:R:3 stress="0.015751123411601682 1.290532099344086e-23 0.0 1.290532099344086e-23 0.015751123411601675 0.0 0.0 0.0 0.015751123411601675" energy=-12.0001834341 Minim_Constant_Volume=T Minim_Hydrostatic_Strain=F pbc="T T T"
Ti       0.00000000       0.00000000       0.00000000       22       0.00000000       0.00000000      -0.00000000 
Ti       1.65371294       1.65371294       1.65371294       22       0.00000000       0.00000000       0.00000000 
2
Lattice="3.334099826003566 2.289091693760443e-23 0.0 2.289091693760443e-23 3.334099826003566 0.0 0.0 0.0 3.334099826003566" Properties=species:S:1:pos:R:3:Z:I:1:forces:R:3 stress="0.02986126656435868 -5.0798612090935644e-23 -5.079861209093564e-23 -5.0798612090935644e-23 0.029861266564358658 3.487678445768145e-46 -5.079861209093564e-23 3.487678445768145e-46 0.029861266564358658" energy=-11.9799437485 Minim_Constant_Volume=T Minim_Hydrostatic_Strain=F pbc="T T T"
Ti       0.00000000       0.00000000       0.00000000       22       0.00000000      -0.00000000       0.00000000 
Ti       1.66704991       1.66704991       1.66704991       22      -0.00000000      -0.00000000      -0.00000000 
2
Lattice="3.3603536614829883 2.3071167799490994e-23 0.0 2.3071167799490994e-23 3.3603536614829883 0.0 0.0 0.0 3.3603536614829883" Properties=species:S:1:pos:R:3:Z:I:1:forces:R:3 stress="0.04167321324208959 8.5013518579425e-22 1.0001590421108822e-22 8.5013518579425e-22 0.04167321324208957 -6.866788264344466e-46 1.0001590421108822e-22 -6.866788264344466e-46 0.04167321324208957" energy=-11.9482137215 Minim_Constant_Volume=T Minim_Hydrostatic_Strain=F pbc="T T T"
Ti       0.00000000       0.00000000       0.00000000       22       0.00000000      -0.00000000       0.00000000 
Ti       1.68017683       1.68017683       1.68017683       22       0.00000000       0.00000000      -0.00000000 
2
Lattice="3.3862035516494466 2.324864529552502e-23 0.0 2.324864529552502e-23 3.3862035516494466 0.0 0.0 0.0 3.3862035516494466" Properties=species:S:1:pos:R:3:Z:I:1:forces:R:3 stress="0.053013421604739465 -6.894629898688719e-22 -9.849471283841026e-23 -6.894629898688719e-22 0.0530134216047395 6.7623478841057306e-46 -9.849471283841026e-23 6.7623478841057306e-46 0.0530134216047395" energy=-11.9063394438 Minim_Constant_Volume=T Minim_Hydrostatic_Strain=F pbc="T T T"
Ti       0.00000000       0.00000000       0.00000000       22      -0.00000000       0.00000000       0.00000000 
Ti       1.69310178       1.69310178       1.69310178       22      -0.00000000      -0.00000000       0.00000000 
2
Lattice="3.4116646847512766 2.3423453703607358e-23 0.0 2.3423453703607358e-23 3.4116646847512766 0.0 0.0 0.0 3.4116646847512766" Properties=species:S:1:pos:R:3:Z:I:1:forces:R:3 stress="0.0630962190939346 1.9406014690957014e-22 -1.9406014690957014e-22 1.9406014690957014e-22 0.06309621909393466 1.332358038340731e-45 -1.9406014690957014e-22 1.332358038340731e-45 0.06309621909393466" energy=-11.8550207765 Minim_Constant_Volume=T Minim_Hydrostatic_Strain=F pbc="T T T"
Ti       0.00000000       0.00000000       0.00000000       22       0.00000000       0.00000000       0.00000000 
Ti       1.70583234       1.70583234       1.70583234       22       0.00000000       0.00000000       0.00000000 
2
Lattice="3.436751355427817 2.3595691166390848e-23 0.0 2.3595691166390848e-23 3.436751355427817 0.0 0.0 0.0 3.436751355427817" Properties=species:S:1:pos:R:3:Z:I:1:forces:R:3 stress="0.07201561832663639 4.7809347799144845e-23 -2.868560867948691e-22 4.7809347799144845e-23 0.07201561832663629 1.9694667822044312e-45 -2.868560867948691e-22 1.9694667822044312e-45 0.07201561832663629" energy=-11.795322684 Minim_Constant_Volume=T Minim_Hydrostatic_Strain=F pbc="T T T"
Ti       0.00000000       0.00000000       0.00000000       22       0.00000000       0.00000000       0.00000000 
Ti       1.71837568       1.71837568       1.71837568       22      -0.00000000       0.00000000      -0.00000000 
