2
Lattice="3.280359576805372 3.7666174905410417e-22 6.915442713592217e-22 3.7666174905410417e-22 3.280359576805372 3.598336912205018e-18 6.915442713592217e-22 3.5983369122050175e-18 3.280359576805372" Properties=species:S:1:pos:R:3:Z:I:1:forces:R:3 stress="3.5498352633015735e-05 4.329324009752859e-22 4.198132373093683e-22 4.329324009752859e-22 3.5498352633015715e-05 -6.4641270680913714e-21 4.198132373093683e-22 -6.4641270680913714e-21 3.549835263301573e-05" energy=-12.0072626966 Minim_Constant_Volume=T Minim_Hydrostatic_Strain=F pbc="T T T"
Ti      -0.00000000       0.00000000      -0.00000000       22       0.00000000       0.00000000       0.00000000 
Ti       1.64017979       1.64017979       1.64017979       22       0.00000000       0.00000000       0.00000000 
2
Lattice="3.252792226605151 3.734963746187459e-22 6.857327002002811e-22 3.734963746187459e-22 3.252792226605151 3.568097357218872e-18 6.857327002002811e-22 3.568097357218871e-18 3.252792226605151" Properties=species:S:1:pos:R:3:Z:I:1:forces:R:3 stress="-0.015622343231224422 -5.336990104883455e-22 -6.404388125860148e-22 -5.336990104883455e-22 -0.015622343231224413 1.4104338981159135e-18 -6.404388125860148e-22 1.4104338981159135e-18 -0.01562234323122441" energy=-12.0005006648 Minim_Constant_Volume=T Minim_Hydrostatic_Strain=F pbc="T T T"
Ti      -0.00000000       0.00000000      -0.00000000       22       0.00000000       0.00000000      -0.00000000 
Ti       1.62639611       1.62639611       1.62639611       22       0.00000000      -0.00000000      -0.00000000 
2
Lattice="3.224749518877957 3.7027641805806166e-22 6.798209172301265e-22 3.7027641805806166e-22 3.224749518877957 3.537336366549913e-18 6.798209172301265e-22 3.5373363665499125e-18 3.224749518877957" Properties=species:S:1:pos:R:3:Z:I:1:forces:R:3 stress="-0.03493047137066117 -2.1720862307199837e-22 -6.516258692159954e-22 -2.1720862307199837e-22 -0.034930471370661194 -6.252888248665652e-18 -6.516258692159954e-22 -6.252888248665652e-18 -0.03493047137066118" energy=-11.9783480312 Minim_Constant_Volume=T Minim_Hydrostatic_Strain=F pbc="T T T"
Ti      -0.00000000       0.00000000      -0.00000000       22       0.00000000      -0.00000000       0.00000000 
Ti       1.61237476       1.61237476       1.61237476       22      -0.00000000      -0.00000000      -0.00000000 
2
Lattice="3.1962104158046447 3.6699946373999334e-22 6.738044873912672e-22 3.6699946373999334e-22 3.1962104158046447 3.5060308631057045e-18 6.738044873912672e-22 3.506030863105704e-18 3.1962104158046447" Properties=species:S:1:pos:R:3:Z:I:1:forces:R:3 stress="-0.05643014951676125 6.633146138967437e-22 6.633146138967435e-22 6.633146138967437e-22 -0.056430149516761244 2.44609669317741e-18 6.633146138967435e-22 2.44609669317741e-18 -0.056430149516761244" energy=-11.9382056585 Minim_Constant_Volume=T Minim_Hydrostatic_Strain=F pbc="T T T"
Ti      -0.00000000       0.00000000      -0.00000000       22       0.00000000       0.00000000       0.00000000 
Ti       1.59810521       1.59810521       1.59810521       22       0.00000000       0.00000000       0.00000000 
2
Lattice="3.167152349095003 3.6366292029872715e-22 6.676786529821636e-22 3.6366292029872715e-22 3.167152349095003 3.474156090968545e-18 6.676786529821636e-22 3.474156090968544e-18 3.167152349095003" Properties=species:S:1:pos:R:3:Z:I:1:forces:R:3 stress="-0.07733605344893846 5.629517001932216e-22 6.755420402318656e-22 5.629517001932216e-22 -0.07733605344893855 -5.438650937395868e-17 6.755420402318656e-22 -5.438650937395868e-17 -0.0773360534489385" energy=-11.8782987947 Minim_Constant_Volume=T Minim_Hydrostatic_Strain=F pbc="T T T"
Ti      -0.00000000       0.00000000      -0.00000000       22       0.00000000       0.00000000       0.00000000 
Ti       1.58357617       1.58357617       1.58357617       22       0.00000000       0.00000000       0.00000000 
2
Lattice="3.1375510625885172 3.6026400256159215e-22 6.61438300475333e-22 3.6026400256159215e-22 3.1375510625885172 3.4416854427389463e-18 6.61438300475333e-22 3.4416854427389455e-18 3.1375510625885172" Properties=species:S:1:pos:R:3:Z:I:1:forces:R:3 stress="-0.09844016336447907 4.588993329084087e-22 -5.326581269585151e-38 4.588993329084087e-22 -0.09844016336447914 2.5278280458574054e-17 -5.326581269585151e-38 2.5278280458574054e-17 -0.09844016336447917" energy=-11.7995334343 Minim_Constant_Volume=T Minim_Hydrostatic_Strain=F pbc="T T T"
Ti      -0.00000000       0.00000000      -0.00000000       22       0.00000000      -0.00000000      -0.00000000 
Ti       1.56877553       1.56877553       1.56877553       22      -0.00000000       0.00000000      -0.00000000 
2
Lattice="3.3074712160069675 3.7977479724357788e-22 6.972597724614759e-22 3.7977479724357788e-22 3.3074712160069675 3.628076582447051e-18 6.972597724614759e-22 3.62807658244705e-18 3.3074712160069675" Properties=species:S:1:pos:R:3:Z:I:1:forces:R:3 stress="0.015776241780158913 -2.5809934484259815e-23 -5.161986896851961e-23 -2.5809934484259815e-23 0.015776241780158923 4.5636797218880704e-18 -5.161986896851961e-23 4.5636797218880704e-18 0.015776241780158923" energy=-12.000159983 Minim_Constant_Volume=T Minim_Hydrostatic_Strain=F pbc="T T T"
Ti      -0.00000000       0.00000000      -0.00000000       22       0.00000000      -0.00000000       0.00000000 
Ti       1.65373561       1.65373561       1.65373561       22       0.00000000      -0.00000000      -0.00000000 
2
Lattice="3.3341455229076944 3.82837629490102e-22 7.028830779856952e-22 3.82837629490102e-22 3.3341455229076944 3.657336528157589e-18 7.028830779856952e-22 3.6573365281575885e-18 3.3341455229076944" Properties=species:S:1:pos:R:3:Z:I:1:forces:R:3 stress="0.02988430814242605 -3.8097914727133133e-23 -2.539860981808878e-22 -3.8097914727133133e-23 0.02988430814242603 -7.129543178771513e-18 -2.539860981808878e-22 -7.129543178771513e-18 0.029884308142426035" energy=-11.9798982238 Minim_Constant_Volume=T Minim_Hydrostatic_Strain=F pbc="T T T"
Ti      -0.00000000       0.00000000      -0.00000000       22       0.00000000       0.00000000       0.00000000 
Ti       1.66707276       1.66707276       1.66707276       22       0.00000000       0.00000000       0.00000000 
2
Lattice="3.3603997182200747 3.8585222313291227e-22 7.084178182915444e-22 3.8585222313291227e-22 3.3603997182200747 3.686135639316245e-18 7.084178182915444e-22 3.686135639316244e-18 3.3603997182200747" Properties=species:S:1:pos:R:3:Z:I:1:forces:R:3 stress="0.04169444804253649 7.000921385329878e-22 -1.0001316264756974e-22 7.000921385329878e-22 0.041694448042536546 -6.332678539592977e-18 -1.0001316264756974e-22 -6.332678539592977e-18 0.04169444804253656" energy=-11.9481486847 Minim_Constant_Volume=T Minim_Hydrostatic_Strain=F pbc="T T T"
Ti      -0.00000000       0.00000000      -0.00000000       22      -0.00000000      -0.00000000      -0.00000000 
Ti       1.68019986       1.68019986       1.68019986       22       0.00000000      -0.00000000      -0.00000000 
2
Lattice="3.3862499626830496 3.8882043380156788e-22 7.138674002818867e-22 3.8882043380156788e-22 3.3862499626830496 3.714491643181904e-18 7.138674002818867e-22 3.7144916431819036e-18 3.3862499626830496" Properties=species:S:1:pos:R:3:Z:I:1:forces:R:3 stress="0.053032766739567416 -9.849201297268761e-23 -4.924600648634386e-22 -9.849201297268761e-23 0.053032766739567444 -1.1686341049977043e-18 -4.924600648634386e-22 -1.1686341049977043e-18 0.053032766739567444" energy=-11.9062547913 Minim_Constant_Volume=T Minim_Hydrostatic_Strain=F pbc="T T T"
Ti      -0.00000000       0.00000000      -0.00000000       22       0.00000000       0.00000000       0.00000000 
Ti       1.69312498       1.69312498       1.69312498       22       0.00000000       0.00000000       0.00000000 
2
Lattice="3.4117114447531223 3.9174400548493896e-22 7.192350258892667e-22 3.9174400548493896e-22 3.4117114447531223 3.742421200484099e-18 7.192350258892667e-22 3.742421200484098e-18 3.4117114447531223" Properties=species:S:1:pos:R:3:Z:I:1:forces:R:3 stress="0.06311377396053175 -4.8513706868348175e-23 -1.506622243568382e-38 -4.8513706868348175e-23 0.06311377396053176 3.397150539666128e-17 -1.506622243568382e-38 3.397150539666128e-17 0.06311377396053176" energy=-11.8549177381 Minim_Constant_Volume=T Minim_Hydrostatic_Strain=F pbc="T T T"
Ti      -0.00000000       0.00000000      -0.00000000       22      -0.00000000      -0.00000000       0.00000000 
Ti       1.70585572       1.70585572       1.70585572       22       0.00000000      -0.00000000      -0.00000000 
2
Lattice="3.436798459265554 3.946245795633455e-22 7.245237086587553e-22 3.946245795633455e-22 3.436798459265554 3.7699399917091204e-18 7.245237086587553e-22 3.76993999170912e-18 3.436798459265554" Properties=species:S:1:pos:R:3:Z:I:1:forces:R:3 stress="0.07203141058979078 -2.8684822370360527e-22 2.868482237036054e-22 -2.8684822370360527e-22 0.07203141058979083 1.7311716077141532e-17 2.868482237036054e-22 1.7311716077141532e-17 0.07203141058979086" energy=-11.7952024704 Minim_Constant_Volume=T Minim_Hydrostatic_Strain=F pbc="T T T"
Ti      -0.00000000       0.00000000      -0.00000000       22       0.00000000       0.00000000       0.00000000 
Ti       1.71839923       1.71839923       1.71839923       22       0.00000000       0.00000000       0.00000000 
