4
Lattice="3.8889600682457077 0.0 0.0 0.0 3.8889600682457077 0.0 0.0 0.0 3.8889600682457077" Properties=species:S:1:pos:R:3:Z:I:1:forces:R:3 stress="-0.0002783048186575264 1.697900571669322e-35 0.0 1.697900571669322e-35 -0.0002783048186575263 1.0611878572933263e-36 0.0 1.0611878572933263e-36 -0.00027830481865752637" energy=-650.328971548 Minim_Constant_Volume=T Minim_Hydrostatic_Strain=F pbc="T T T"
Si       0.00000000       0.00000000       0.00000000       14       0.00000000       0.00000000       0.00000000 
Si       1.94448003       1.94448003       0.00000000       14       0.00000000       0.00000000       0.00000000 
Si       1.94448003       0.00000000       1.94448003       14       0.00000000       0.00000000       0.00000000 
Si       0.00000000       1.94448003       1.94448003       14       0.00000000       0.00000000       0.00000000 
4
Lattice="3.8562781863953 0.0 0.0 0.0 3.8562781863953 0.0 0.0 0.0 3.8562781863953" Properties=species:S:1:pos:R:3:Z:I:1:forces:R:3 stress="-0.011459211874655779 4.317004679582038e-36 0.0 4.317004679582038e-36 -0.011459211874655779 3.237753509686529e-36 0.0 3.237753509686529e-36 -0.011459211874655779" energy=-650.320834885 Minim_Constant_Volume=T Minim_Hydrostatic_Strain=F pbc="T T T"
Si       0.00000000       0.00000000       0.00000000       14       0.00000000       0.00000000       0.00000000 
Si       1.92813909       1.92813909       0.00000000       14       0.00000000       0.00000000       0.00000000 
Si       1.92813909       0.00000000       1.92813909       14       0.00000000       0.00000000       0.00000000 
Si       0.00000000       1.92813909       1.92813909       14       0.00000000       0.00000000       0.00000000 
4
Lattice="3.8230327546055487 0.0 0.0 0.0 3.8230327546055487 0.0 0.0 0.0 3.8230327546055487" Properties=species:S:1:pos:R:3:Z:I:1:forces:R:3 stress="-0.026892577854432456 6.478809544959332e-35 0.0 6.478809544959332e-35 -0.026892577854432442 5.710137226065851e-35 0.0 5.710137226065851e-35 -0.026892577854432456" energy=-650.293114192 Minim_Constant_Volume=T Minim_Hydrostatic_Strain=F pbc="T T T"
Si       0.00000000       0.00000000       0.00000000       14       0.00000000       0.00000000       0.00000000 
Si       1.91151638       1.91151638       0.00000000       14       0.00000000       0.00000000       0.00000000 
Si       1.91151638       0.00000000       1.91151638       14       0.00000000       0.00000000       0.00000000 
Si       0.00000000       1.91151638       1.91151638       14       0.00000000       0.00000000       0.00000000 
4
Lattice="3.7891988319403547 0.0 0.0 0.0 3.7891988319403547 0.0 0.0 0.0 3.7891988319403547" Properties=species:S:1:pos:R:3:Z:I:1:forces:R:3 stress="-0.044262309808195066 7.153925679587835e-35 0.0 7.153925679587835e-35 -0.04426230980819505 1.430785135917567e-34 0.0 1.430785135917567e-34 -0.04426230980819507" energy=-650.240746402 Minim_Constant_Volume=T Minim_Hydrostatic_Strain=F pbc="T T T"
Si       0.00000000       0.00000000       0.00000000       14       0.00000000       0.00000000       0.00000000 
Si       1.89459942       1.89459942       0.00000000       14       0.00000000       0.00000000       0.00000000 
Si       1.89459942       0.00000000       1.89459942       14       0.00000000       0.00000000       0.00000000 
Si       0.00000000       1.89459942       1.89459942       14       0.00000000       0.00000000       0.00000000 
4
Lattice="3.754749663046416 0.0 0.0 0.0 3.754749663046416 0.0 0.0 0.0 3.754749663046416" Properties=species:S:1:pos:R:3:Z:I:1:forces:R:3 stress="-0.05858207801434316 3.642899951250135e-35 0.0 3.642899951250135e-35 -0.05858207801434316 1.8214499756250676e-35 0.0 1.8214499756250676e-35 -0.05858207801434316" energy=-650.16448281 Minim_Constant_Volume=T Minim_Hydrostatic_Strain=F pbc="T T T"
Si       0.00000000       0.00000000       0.00000000       14       0.00000000       0.00000000       0.00000000 
Si       1.87737483       1.87737483       0.00000000       14       0.00000000       0.00000000       0.00000000 
Si       1.87737483       0.00000000       1.87737483       14       0.00000000       0.00000000       0.00000000 
Si       0.00000000       1.87737483       1.87737483       14       0.00000000       0.00000000       0.00000000 
4
Lattice="3.7196564915519263 0.0 0.0 0.0 3.7196564915519263 0.0 0.0 0.0 3.7196564915519263" Properties=species:S:1:pos:R:3:Z:I:1:forces:R:3 stress="-0.06748226555754225 5.382345229428917e-34 0.0 5.382345229428917e-34 -0.06748226555754225 5.892740035667867e-34 0.0 5.892740035667867e-34 -0.06748226555754225" energy=-650.071265362 Minim_Constant_Volume=T Minim_Hydrostatic_Strain=F pbc="T T T"
Si       0.00000000       0.00000000       0.00000000       14       0.00000000       0.00000000       0.00000000 
Si       1.85982825       1.85982825       0.00000000       14       0.00000000       0.00000000       0.00000000 
Si       1.85982825       0.00000000       1.85982825       14       0.00000000       0.00000000       0.00000000 
Si       0.00000000       1.85982825       1.85982825       14       0.00000000       0.00000000       0.00000000 
4
Lattice="3.9211016916778467 0.0 0.0 0.0 3.9211016916778467 0.0 0.0 0.0 3.9211016916778467" Properties=species:S:1:pos:R:3:Z:I:1:forces:R:3 stress="0.008349823998122617 -8.350894849612128e-36 0.0 -8.350894849612128e-36 0.008349823998122613 6.263171137209097e-36 0.0 6.263171137209097e-36 0.008349823998122617" energy=-650.322934479 Minim_Constant_Volume=T Minim_Hydrostatic_Strain=F pbc="T T T"
Si       0.00000000       0.00000000       0.00000000       14       0.00000000       0.00000000       0.00000000 
Si       1.96055085       1.96055085       0.00000000       14       0.00000000       0.00000000       0.00000000 
Si       1.96055085       0.00000000       1.96055085       14       0.00000000       0.00000000       0.00000000 
Si       0.00000000       1.96055085       1.96055085       14       0.00000000       0.00000000       0.00000000 
4
Lattice="3.9527248451633814 0.0 0.0 0.0 3.9527248451633814 0.0 0.0 0.0 3.9527248451633814" Properties=species:S:1:pos:R:3:Z:I:1:forces:R:3 stress="0.017875933421259885 0.0 0.0 0.0 0.01787593342125989 0.0 0.0 0.0 0.017875933421259885" energy=-650.303950726 Minim_Constant_Volume=T Minim_Hydrostatic_Strain=F pbc="T T T"
Si       0.00000000       0.00000000       0.00000000       14       0.00000000       0.00000000       0.00000000 
Si       1.97636242       1.97636242       0.00000000       14       0.00000000       0.00000000       0.00000000 
Si       1.97636242       0.00000000       1.97636242       14       0.00000000       0.00000000       0.00000000 
Si       0.00000000       1.97636242       1.97636242       14       0.00000000       0.00000000       0.00000000 
4
Lattice="3.9838499443493682 0.0 0.0 0.0 3.9838499443493682 0.0 0.0 0.0 3.9838499443493682" Properties=species:S:1:pos:R:3:Z:I:1:forces:R:3 stress="0.03042816785129173 0.0 0.0 0.0 0.030428167851291765 3.235960964396698e-35 0.0 3.235960964396698e-35 0.03042816785129173" energy=-650.268829884 Minim_Constant_Volume=T Minim_Hydrostatic_Strain=F pbc="T T T"
Si       0.00000000       0.00000000       0.00000000       14       0.00000000       0.00000000       0.00000000 
Si       1.99192497       1.99192497       0.00000000       14       0.00000000       0.00000000       0.00000000 
Si       1.99192497       0.00000000       1.99192497       14       0.00000000       0.00000000       0.00000000 
Si       0.00000000       1.99192497       1.99192497       14       0.00000000       0.00000000       0.00000000 
4
Lattice="4.014496148253881 0.0 0.0 0.0 4.014496148253881 0.0 0.0 0.0 4.014496148253881" Properties=species:S:1:pos:R:3:Z:I:1:forces:R:3 stress="0.043655582091197596 1.274697453204538e-34 0.0 1.274697453204538e-34 0.043655582091197596 -1.4738689302677473e-34 0.0 -1.4738689302677473e-34 0.043655582091197596" energy=-650.213873166 Minim_Constant_Volume=T Minim_Hydrostatic_Strain=F pbc="T T T"
Si       0.00000000       0.00000000       0.00000000       14       0.00000000       0.00000000       0.00000000 
Si       2.00724807       2.00724807       0.00000000       14       0.00000000       0.00000000       0.00000000 
Si       2.00724807       0.00000000       2.00724807       14       0.00000000       0.00000000       0.00000000 
Si       0.00000000       2.00724807       2.00724807       14       0.00000000       0.00000000       0.00000000 
4
Lattice="4.044681463226363 0.0 0.0 0.0 4.044681463226363 0.0 0.0 0.0 4.044681463226363" Properties=species:S:1:pos:R:3:Z:I:1:forces:R:3 stress="0.055237712001308316 4.1694572019971493e-36 0.0 4.1694572019971493e-36 0.055237712001308316 4.414719390349922e-36 0.0 4.414719390349922e-36 0.055237712001308316" energy=-650.14106148 Minim_Constant_Volume=T Minim_Hydrostatic_Strain=F pbc="T T T"
Si       0.00000000       0.00000000       0.00000000       14       0.00000000       0.00000000       0.00000000 
Si       2.02234073       2.02234073       0.00000000       14       0.00000000       0.00000000       0.00000000 
Si       2.02234073       0.00000000       2.02234073       14       0.00000000       0.00000000       0.00000000 
Si       0.00000000       2.02234073       2.02234073       14       0.00000000       0.00000000       0.00000000 
4
Lattice="4.074422836202724 0.0 0.0 0.0 4.074422836202724 0.0 0.0 0.0 4.074422836202724" Properties=species:S:1:pos:R:3:Z:I:1:forces:R:3 stress="0.0645745906426454 1.6918626139721224e-36 0.0 1.6918626139721224e-36 0.06457459064264538 0.0 0.0 0.0 0.0645745906426454" energy=-650.052516074 Minim_Constant_Volume=T Minim_Hydrostatic_Strain=F pbc="T T T"
Si       0.00000000       0.00000000       0.00000000       14       0.00000000       0.00000000       0.00000000 
Si       2.03721142       2.03721142       0.00000000       14       0.00000000       0.00000000       0.00000000 
Si       2.03721142       0.00000000       2.03721142       14       0.00000000       0.00000000       0.00000000 
Si       0.00000000       2.03721142       2.03721142       14       0.00000000       0.00000000       0.00000000 
