2
Lattice="3.293558139435156 4.276999530049699e-21 0.0 4.276999530049699e-21 3.293558139435156 0.0 0.0 0.0 3.293558139435156" Properties=species:S:1:pos:R:3:Z:I:1:forces:R:3 stress="5.446005138863374e-05 5.8303737910938214e-21 4.99746324950899e-21 5.8303737910938214e-21 5.446005138863374e-05 -6.489682909698461e-42 4.99746324950899e-21 -6.489682909698461e-42 5.446005138863374e-05" energy=-11.9406908585 Minim_Constant_Volume=T Minim_Hydrostatic_Strain=F pbc="T T T"
Ti      -0.00000000      -0.00000000      -0.00000000       22       0.00000000       0.00000000       0.00000000 
Ti       1.64677907       1.64677907       1.64677907       22       0.00000000       0.00000000       0.00000000 
2
Lattice="3.26587987169994 4.241056658211884e-21 0.0 4.241056658211884e-21 3.26587987169994 0.0 0.0 0.0 3.26587987169994" Properties=species:S:1:pos:R:3:Z:I:1:forces:R:3 stress="0.0072010613679498936 -6.353161249294656e-22 -2.117720416431552e-22 -6.353161249294656e-22 0.007201061367949893 2.7500620430546752e-43 -2.117720416431552e-22 2.7500620430546752e-43 0.007201061367949893" energy=-11.9351600117 Minim_Constant_Volume=T Minim_Hydrostatic_Strain=F pbc="T T T"
Ti      -0.00000000      -0.00000000      -0.00000000       22       0.00000000      -0.00000000      -0.00000000 
Ti       1.63293994       1.63293994       1.63293994       22      -0.00000000      -0.00000000       0.00000000 
2
Lattice="3.237724333831544 4.204494005562893e-21 0.0 4.204494005562893e-21 3.237724333831544 0.0 0.0 0.0 3.237724333831544" Properties=species:S:1:pos:R:3:Z:I:1:forces:R:3 stress="-0.012816547034947605 2.5856547979187306e-21 0.0 2.5856547979187306e-21 -0.012816547034947584 0.0 0.0 0.0 -0.012816547034947584" energy=-11.9318518443 Minim_Constant_Volume=T Minim_Hydrostatic_Strain=F pbc="T T T"
Ti      -0.00000000      -0.00000000      -0.00000000       22       0.00000000       0.00000000      -0.00000000 
Ti       1.61886217       1.61886217       1.61886217       22       0.00000000       0.00000000       0.00000000 
2
Lattice="3.209070403364925 4.1672841425662665e-21 0.0 4.1672841425662665e-21 3.209070403364925 0.0 0.0 0.0 3.209070403364925" Properties=species:S:1:pos:R:3:Z:I:1:forces:R:3 stress="-0.032686339902781116 1.3160178984416727e-21 0.0 1.3160178984416727e-21 -0.032686339902781116 0.0 0.0 0.0 -0.032686339902781116" energy=-11.9116986718 Minim_Constant_Volume=T Minim_Hydrostatic_Strain=F pbc="T T T"
Ti      -0.00000000      -0.00000000      -0.00000000       22      -0.00000000       0.00000000      -0.00000000 
Ti       1.60453520       1.60453520       1.60453520       22       0.00000000      -0.00000000      -0.00000000 
2
Lattice="3.1798954212061115 4.129397644226251e-21 0.0 4.129397644226251e-21 3.1798954212061115 0.0 0.0 0.0 3.1798954212061115" Properties=species:S:1:pos:R:3:Z:I:1:forces:R:3 stress="-0.05492276411370768 -1.787036191613957e-21 4.467590479034893e-22 -1.787036191613957e-21 -0.054922764113707646 -5.801592554417071e-43 4.467590479034893e-22 -5.801592554417071e-43 -0.05492276411370764" energy=-11.8727582287 Minim_Constant_Volume=T Minim_Hydrostatic_Strain=F pbc="T T T"
Ti      -0.00000000      -0.00000000      -0.00000000       22      -0.00000000      -0.00000000      -0.00000000 
Ti       1.58994771       1.58994771       1.58994771       22       0.00000000      -0.00000000      -0.00000000 
2
Lattice="3.1501750335996612 4.090802884867462e-21 0.0 4.090802884867462e-21 3.1501750335996612 0.0 0.0 0.0 3.1501750335996612" Properties=species:S:1:pos:R:3:Z:I:1:forces:R:3 stress="-0.07976628634601117 -9.104574556899789e-22 1.3656861835349682e-21 -9.104574556899789e-22 -0.07976628634601125 -1.7734738291810336e-42 1.3656861835349682e-21 -1.7734738291810336e-42 -0.07976628634601125" energy=-11.8128118833 Minim_Constant_Volume=T Minim_Hydrostatic_Strain=F pbc="T T T"
Ti      -0.00000000      -0.00000000      -0.00000000       22       0.00000000       0.00000000       0.00000000 
Ti       1.57508752       1.57508752       1.57508752       22       0.00000000       0.00000000       0.00000000 
2
Lattice="3.3207788626135595 4.312348236619552e-21 0.0 4.312348236619552e-21 3.3207788626135595 0.0 0.0 0.0 3.3207788626135595" Properties=species:S:1:pos:R:3:Z:I:1:forces:R:3 stress="0.01562891609359744 4.9158697285106216e-21 4.9158697285106216e-21 4.9158697285106216e-21 0.01562891609359744 -6.38372593666474e-42 4.9158697285106216e-21 -6.38372593666474e-42 0.01562891609359744" energy=-11.9335618138 Minim_Constant_Volume=T Minim_Hydrostatic_Strain=F pbc="T T T"
Ti      -0.00000000      -0.00000000      -0.00000000       22       0.00000000      -0.00000000      -0.00000000 
Ti       1.66038943       1.66038943       1.66038943       22      -0.00000000       0.00000000       0.00000000 
2
Lattice="3.3475604938798 4.3471267404413546e-21 0.0 4.3471267404413546e-21 3.3475604938798 0.0 0.0 0.0 3.3475604938798" Properties=species:S:1:pos:R:3:Z:I:1:forces:R:3 stress="0.029596237282930593 8.062545143042943e-22 -8.062545143042943e-22 8.062545143042943e-22 0.029596237282930593 1.0469984232224014e-42 -8.062545143042943e-22 1.0469984232224014e-42 0.029596237282930593" energy=-11.9132504848 Minim_Constant_Volume=T Minim_Hydrostatic_Strain=F pbc="T T T"
Ti      -0.00000000      -0.00000000      -0.00000000       22       0.00000000      -0.00000000      -0.00000000 
Ti       1.67378025       1.67378025       1.67378025       22      -0.00000000      -0.00000000       0.00000000 
2
Lattice="3.373920323234123 4.3813574942303145e-21 0.0 4.3813574942303145e-21 3.373920323234123 0.0 0.0 0.0 3.373920323234123" Properties=species:S:1:pos:R:3:Z:I:1:forces:R:3 stress="0.04209149256746952 -7.937054867568388e-22 -6.349643894054709e-21 -7.937054867568388e-22 0.04209149256746947 8.245618507743246e-42 -6.349643894054709e-21 8.245618507743246e-42 0.042091492567469475" energy=-11.8811307636 Minim_Constant_Volume=T Minim_Hydrostatic_Strain=F pbc="T T T"
Ti      -0.00000000      -0.00000000      -0.00000000       22       0.00000000       0.00000000      -0.00000000 
Ti       1.68696016       1.68696016       1.68696016       22      -0.00000000      -0.00000000       0.00000000 
2
Lattice="3.3998745764383806 4.4150615686865315e-21 0.0 4.4150615686865315e-21 3.3998745764383806 0.0 0.0 0.0 3.3998745764383806" Properties=species:S:1:pos:R:3:Z:I:1:forces:R:3 stress="0.05323446903332303 -6.253069018414656e-21 -1.563267254603664e-21 -6.253069018414656e-21 0.05323446903332305 2.0300517040299208e-42 -1.563267254603664e-21 2.0300517040299208e-42 0.05323446903332305" energy=-11.8384629226 Minim_Constant_Volume=T Minim_Hydrostatic_Strain=F pbc="T T T"
Ti      -0.00000000      -0.00000000      -0.00000000       22       0.00000000       0.00000000       0.00000000 
Ti       1.69993729       1.69993729       1.69993729       22       0.00000000       0.00000000       0.00000000 
2
Lattice="3.4254385030599974 4.448258766828487e-21 0.0 4.448258766828487e-21 3.4254385030599974 0.0 0.0 0.0 3.4254385030599974" Properties=species:S:1:pos:R:3:Z:I:1:forces:R:3 stress="0.06313197942530735 -7.700105527111148e-22 -2.3100316581333445e-21 -7.700105527111148e-22 0.06313197942530728 2.9997965416000396e-42 -2.3100316581333445e-21 2.9997965416000396e-42 0.0631319794253073" energy=-11.786406187 Minim_Constant_Volume=T Minim_Hydrostatic_Strain=F pbc="T T T"
Ti      -0.00000000      -0.00000000      -0.00000000       22       0.00000000       0.00000000       0.00000000 
Ti       1.71271925       1.71271925       1.71271925       22       0.00000000       0.00000000       0.00000000 
2
Lattice="3.4506264554496604 4.480967726553114e-21 0.0 4.480967726553114e-21 3.4506264554496604 0.0 0.0 0.0 3.4506264554496604" Properties=species:S:1:pos:R:3:Z:I:1:forces:R:3 stress="0.07187326233841733 3.0352406022433634e-21 0.0 3.0352406022433634e-21 0.07187326233841745 0.0 0.0 0.0 0.07187326233841747" energy=-11.7260319869 Minim_Constant_Volume=T Minim_Hydrostatic_Strain=F pbc="T T T"
Ti      -0.00000000      -0.00000000      -0.00000000       22       0.00000000       0.00000000       0.00000000 
Ti       1.72531323       1.72531323       1.72531323       22       0.00000000       0.00000000       0.00000000 
