66
max_scf_cycles=250 perc_extra_bands=200.00000000 mixing_scheme=pulay energy=-10764.46297770 stress="-0.00000510       0.00027674      -0.00024496       0.00027674       0.00001131      -0.00026824      -0.00024496      -0.00026824       0.00002394" castep_run_time=7580.40000000 spin_polarized=False fix_occupancy=False virial="0.23043058      -0.00572652      -0.30462781      -0.00572652       0.23176732      -0.18083924      -0.30462781      -0.18083924       0.20298619" mix_history_length=20 num_dump_cycles=0 task=GeometryOptimization opt_strategy=speed calculate_stress=True enthalpy=-10764.20060000 elec_energy_tol=0.00000010 smearing_width=0.05000000 castep_file_name=castep.castep fine_grid_scale=4.00000000 xc_functional=PW91 finite_basis_corr=automatic cut_off_energy=250.00000000 cutoff=-1.00000000 nneightol=1.20000000 pbc="T T T" Lattice="10.98700593      -0.02126037       0.02185242      -0.02126246      10.98739338       0.02144343       0.02185211       0.02144106      10.98770671" Properties=species:S:1:pos:R:3:frac_pos:R:3:force:R:3:Z:I:1:forces:R:3
Si             -4.57954882     -4.58016872     -4.61573762     -0.41680400     -0.41691800     -0.41852200      0.01454000      0.01857000     -0.00362000      14     -0.00158906     -0.00175209      0.00087460
Si             -4.57001814     -4.57064432      0.88479424     -0.41743400     -0.41747600      0.08214800     -0.00172000      0.00449000      0.00903000      14      0.00304991      0.00244145      0.00358337
Si             -4.59153989      0.90696654     -4.60386370     -0.41741300      0.08243300     -0.41782600     -0.00069000      0.01112000      0.00630000      14      0.00292670     -0.00480878     -0.00310551
Si             -4.59730704      0.92409092      0.88874539     -0.41738000      0.08276200      0.08197100      0.01456000      0.01762000     -0.00816000      14     -0.00424752      0.00104104     -0.00121383
Si              0.90729710     -4.59199920     -4.60348896      0.08247800     -0.41744800     -0.41790000      0.00161000      0.00253000      0.01414000      14     -0.00459693      0.00261980     -0.00357948
Si              0.92473940     -4.59801789      0.88911627      0.08283200     -0.41755900      0.08189000      0.01322000      0.02822000     -0.00764000      14      0.00125938     -0.00486249     -0.00160680
Si              0.90323869      0.90286270     -4.57625890      0.08282200      0.08264900     -0.41780900      0.01351000      0.01997000     -0.00962000      14      0.00109931      0.00080605      0.00425859
Si              0.06332018      1.87682171      1.75039787      0.00779400      0.16949600      0.15686800     -0.00722000      0.02136000     -0.00039000      14      0.00212665     -0.00598686     -0.00246223
Si             -7.31705766     -7.31773328     -4.61420376     -0.66645700     -0.66642700     -0.41748400      0.01287000      0.00099000     -0.00986000      14     -0.00288982     -0.00246175      0.00162564
Si             -7.28906466     -7.28986394      0.84008168     -0.66475200     -0.66483100      0.07933300      0.01558000      0.01930000     -0.01125000      14      0.00043419      0.00003046      0.00248576
Si             -7.31505943     -1.83145604     -4.62002584     -0.66601900     -0.16754100     -0.41877200     -0.00088000     -0.00056000     -0.00001000      14     -0.00511700      0.00136625     -0.00443187
Si             -7.25433061     -1.88842318      0.88204993     -0.66128900     -0.17221300      0.08058100      0.01474000      0.00102000      0.00537000      14      0.00237952     -0.00259905     -0.00704250
Si             -1.83099854     -7.31583546     -4.61997740     -0.16744400     -0.66602100     -0.41879200      0.00249000     -0.01341000      0.00079000      14      0.00114507     -0.00446645     -0.00422414
Si             -1.88786246     -7.25510954      0.88203650     -0.17212100     -0.66128700      0.08066400     -0.00019000      0.01104000      0.00263000      14     -0.00239787      0.00239565     -0.00687063
Si             -1.83463193     -1.83508642     -4.63242206     -0.16692500     -0.16692200     -0.41964200      0.00799000      0.00372000      0.00249000      14     -0.00182618     -0.00164411      0.00346603
Si             -1.83733878     -1.83808408      0.83414224     -0.16882500     -0.16883600      0.07801900     -0.00791000     -0.01347000      0.00625000      14     -0.00184697     -0.00167596      0.00051583
Si             -4.57519855     -7.31588734     -7.36467651     -0.41637400     -0.66598900     -0.66772600      0.00274000     -0.00845000     -0.00111000      14      0.00369240     -0.00483059     -0.00133983
Si             -4.58149218     -7.31765495     -1.87818237     -0.41785800     -0.66645500     -0.16880100      0.01625000      0.00595000     -0.00876000      14     -0.00151156     -0.00274423      0.00258762
Si             -4.56312046     -1.83517670     -7.36073906     -0.41575200     -0.16687000     -0.66840500      0.00269000      0.00499000     -0.00488000      14     -0.00319551     -0.00177939      0.00141150
Si             -4.57501495     -1.83146614     -1.87999890     -0.41635400     -0.16750900     -0.16930400     -0.00036000      0.00330000      0.01200000      14      0.00413465      0.00141888      0.00456608
Si              0.90956967     -7.27631080     -7.28585870      0.08411200     -0.66133700     -0.66309600     -0.00488000      0.01746000      0.00775000      14      0.00726227      0.00191370      0.00233557
Si              0.95197958     -7.31108085     -1.88453144      0.08561000     -0.66482800     -0.17043600      0.01271000      0.01713000     -0.01651000      14     -0.00269572      0.00009563     -0.00024397
Si              0.95823485     -1.85949247     -7.33619845      0.08675200     -0.16885600     -0.66647800     -0.00222000     -0.01631000      0.01867000      14     -0.00098046     -0.00178100      0.00169958
Si              0.90984165     -1.90979952     -1.91912578      0.08399500     -0.17208900     -0.17389500      0.00104000     -0.00863000     -0.01205000      14      0.00714435     -0.00208251     -0.00208824
Si             -7.31519085     -4.57580647     -7.36461594     -0.66597800     -0.41640500     -0.66774100     -0.01008000      0.00512000     -0.00815000      14     -0.00483472      0.00386062     -0.00127983
Si             -7.31695818     -4.58205692     -1.87819583     -0.66644100     -0.41787600     -0.16889600      0.01057000      0.01465000     -0.00596000      14     -0.00298197     -0.00137766      0.00258170
Si             -7.27589176      0.90940647     -7.28629668     -0.66128300      0.08395300     -0.66308000      0.01195000      0.00765000      0.00561000      14      0.00216384      0.00687254      0.00258369
Si             -7.31043289      0.95161316     -1.88476609     -0.66478300      0.08548500     -0.17040000      0.01966000      0.01428000     -0.01627000      14      0.00016741     -0.00272309     -0.00027236
Si             -1.83478628     -4.56355979     -7.36070809     -0.16686400     -0.41581500     -0.66844600      0.00509000      0.00581000     -0.00532000      14     -0.00187415     -0.00333129      0.00159158
Si             -1.83086158     -4.57560262     -1.87992157     -0.16753500     -0.41645900     -0.16927000      0.01242000      0.00270000      0.00365000      14      0.00088605      0.00383683      0.00486805
Si             -1.85896366      0.95784851     -7.33654082     -0.16872600      0.08672200     -0.66644700     -0.02154000      0.00696000      0.01966000      14     -0.00167774     -0.00119910      0.00172304
Si             -1.90936622      0.90942979     -1.91938425     -0.17205400      0.08402400     -0.17388800     -0.00504000     -0.00216000     -0.02010000      14     -0.00215541      0.00711125     -0.00184216
Si             -3.20007671     -3.20068143     -3.25382926     -0.29152100     -0.29157700     -0.29458200     -0.00135000     -0.00279000      0.00788000      14      0.00372666      0.00377964     -0.00178893
Si             -3.20272326     -3.20351858      2.24917428     -0.29315600     -0.29319800      0.20635900     -0.02218000     -0.02048000      0.00772000      14     -0.00207753     -0.00210220     -0.00689839
Si             -3.25895475      2.31284538     -3.26503676     -0.29546000      0.20973400     -0.29636700     -0.01741000     -0.01537000     -0.00382000      14      0.00043733      0.00025513      0.00296450
Si             -3.24016923      2.30709130      2.25484700     -0.29355200      0.20928400      0.20576300     -0.00184000     -0.01975000      0.00479000      14      0.00254837      0.00192196      0.00711700
Si              2.31320936     -3.25942970     -3.26470466      0.20974600     -0.29549400     -0.29632900     -0.02045000     -0.01878000     -0.01119000      14      0.00047407      0.00035700      0.00306937
Si              2.30789412     -3.24113031      2.25530639      0.20925400     -0.29358800      0.20563400     -0.01185000     -0.01188000      0.01239000      14      0.00156502      0.00303197      0.00681801
Si              2.27440213      2.27405394     -3.22132053      0.20787400      0.20775200     -0.29402100     -0.00626000     -0.00496000     -0.00147000      14     -0.00199344     -0.00217467     -0.00441852
Si              2.39972385      2.39930672      2.41166271      0.21886200      0.21882400      0.21763600      0.00199000     -0.00882000     -0.01183000      14      0.00319995      0.00294438     -0.00617073
Si             -5.95305273     -5.95364015     -3.24243319     -0.54204800     -0.54212000     -0.29326700      0.00179000      0.00164000     -0.00055000      14     -0.00080058     -0.00126271      0.00124055
Si             -5.93807681     -5.93907300      2.25088462     -0.54172400     -0.54178200      0.20751200     -0.00665000     -0.00427000     -0.00606000      14     -0.00221151     -0.00200763     -0.00254903
Si             -5.95957376     -0.45924783     -3.23546936     -0.54175100     -0.04271500     -0.29346900     -0.00935000     -0.00233000      0.00584000      14     -0.00219678      0.00269675      0.00195786
Si             -5.93106239     -0.45731914      2.27016240     -0.54129500     -0.04238900      0.20706100      0.01665000      0.00152000     -0.00935000      14     -0.00492911     -0.00121407      0.00159853
Si             -0.45886733     -5.96026088     -3.23536108     -0.04262000     -0.54188100     -0.29346600     -0.00174000      0.00369000      0.00642000      14      0.00294082     -0.00262257      0.00212853
Si             -0.45663378     -5.93205808      2.27028967     -0.04231200     -0.54127600      0.20707500      0.00609000      0.00692000     -0.00481000      14     -0.00139723     -0.00444931      0.00164101
Si             -0.47809159     -0.47857161     -3.24241935     -0.04243300     -0.04251600     -0.29406200      0.00713000      0.01389000     -0.01417000      14     -0.00162830     -0.00166151      0.00441278
Si             -0.55977386     -0.56078853      2.37396139     -0.04902900     -0.04904700      0.21388500      0.00290000     -0.00787000     -0.00831000      14      0.00545782      0.00580987     -0.00552405
Si             -3.20021868     -5.94224579     -5.99522313     -0.29144000     -0.54080300     -0.54369700     -0.00073000     -0.01137000     -0.00614000      14      0.00364881      0.00246474     -0.00334486
Si             -3.23751525     -5.90936301     -0.52136329     -0.29547700     -0.53887000     -0.04507000     -0.01803000     -0.00173000      0.01129000      14      0.00048250     -0.00264253      0.00032612
Si             -3.22433726     -0.45731977     -5.97117157     -0.29319300     -0.04162400     -0.54209700     -0.01349000     -0.01289000      0.00890000      14     -0.00232146      0.00710012      0.00263000
Si             -3.24023434     -0.44209776     -0.49417544     -0.29354100     -0.04099900     -0.04446400     -0.00605000     -0.01191000      0.00700000      14      0.00231925     -0.00655956     -0.00153578
Si              2.31306409     -5.93074725     -5.93627270      0.20984300     -0.53881500     -0.53974700     -0.01924000     -0.00131000      0.00867000      14      0.00033541     -0.00254255      0.00004783
Si              2.29578888     -5.95306668     -0.48209119      0.20791100     -0.54125600     -0.04303600     -0.00186000     -0.01072000     -0.00250000      14     -0.00222905      0.00525619      0.00244926
Si              2.28629438     -0.46335689     -5.93315615      0.20927800     -0.04111000     -0.54162500     -0.01338000     -0.00819000     -0.00242000      14      0.00137770     -0.00687820     -0.00249632
Si              2.39970302     -0.59811059     -0.58611190      0.21882700     -0.05283500     -0.05407400     -0.00003000      0.00963000     -0.00067000      14      0.00277519      0.00623127     -0.00243053
Si             -5.94158223     -3.20074988     -5.99518452     -0.54071800     -0.29158900     -0.54371000     -0.01180000      0.00674000     -0.00213000      14      0.00238694      0.00349214     -0.00373883
Si             -5.90867014     -3.23807235     -0.52135953     -0.53885800     -0.29554900     -0.04515100      0.00734000     -0.01632000      0.01303000      14     -0.00298684      0.00011823      0.00018279
Si             -5.93018053      2.31280502     -5.93671891     -0.53878400      0.20976700     -0.53977500     -0.00319000     -0.01800000      0.01594000      14     -0.00258572      0.00016354     -0.00007494
Si             -5.95225839      2.29531821     -0.48241241     -0.54122000      0.20778400     -0.04297700     -0.00251000     -0.00463000     -0.00326000      14      0.00470113     -0.00208830      0.00242785
Si             -0.45690555     -3.22489316     -5.97098583     -0.04168700     -0.29326700     -0.54215900     -0.00380000     -0.01244000      0.01497000      14      0.00685932     -0.00246317      0.00242712
Si             -0.44136618     -3.24102307     -0.49400653     -0.04099200     -0.29366000     -0.04446900     -0.01034000     -0.00407000      0.00856000      14     -0.00698038      0.00241992     -0.00156049
Si             -0.46292614      2.28582682     -5.93334425     -0.04092700      0.20918500     -0.54159300     -0.00879000     -0.01167000     -0.00104000      14     -0.00679579      0.00159207     -0.00250366
Si             -0.59762122      2.39921123     -0.58638086     -0.05278100      0.21885500     -0.05414200      0.01076000      0.00108000      0.00581000      14      0.00650367      0.00280519     -0.00258012
Si              0.06348145      0.06294693     -0.06345772      0.00770000      0.00781000     -0.00457700     -0.00686000     -0.00378000     -0.01893000      14      0.00167187      0.00203301      0.00609181
Si              1.87733513      0.06279385      1.75064183      0.16964200      0.00787100      0.15678400      0.02104000     -0.00174000      0.00474000      14     -0.00573126      0.00249214     -0.00307061
