66
max_scf_cycles=250 perc_extra_bands=200.00000000 mixing_scheme=pulay energy=-10763.98899640 stress="-0.00016811      -0.00007931       0.00028043      -0.00007931      -0.00005934       0.00008889       0.00028043       0.00008889       0.00024235" castep_run_time=15470.56000000 spin_polarized=False fix_occupancy=False virial="0.09591577       0.08590374       0.07359221       0.08590374      -0.02031780       0.18578908       0.07359221       0.18578908       0.01033933" mix_history_length=20 num_dump_cycles=0 task=GeometryOptimization opt_strategy=speed calculate_stress=True enthalpy=-10763.94880000 elec_energy_tol=0.00000010 smearing_width=0.05000000 castep_file_name=castep.castep fine_grid_scale=4.00000000 xc_functional=PW91 finite_basis_corr=automatic cut_off_energy=250.00000000 cutoff=-1.00000000 nneightol=1.20000000 pbc="T T T" Lattice="11.02960408      -0.13365599       0.06822127      -0.13360631      11.07053076      -0.13157318       0.06818551      -0.13172327      11.03563592" Properties=species:S:1:pos:R:3:frac_pos:R:3:force:R:3:Z:I:1:forces:R:3
Si             -3.40426183     -6.08332476     -6.15613125     -0.31094800     -0.55934900     -0.56168800     -0.01875000      0.00200000     -0.01137000      14      0.00112603      0.00400554      0.00095763
Si             -3.43405418     -6.09243183     -0.61170719     -0.31754800     -0.55434000     -0.06114100     -0.00299000     -0.00003000      0.00269000      14     -0.00009101     -0.00369256     -0.00216889
Si             -3.46650374     -0.57621743     -6.19689719     -0.31034500     -0.06247200     -0.56076400     -0.00330000      0.00525000     -0.03280000      14     -0.00033262      0.00330074      0.00111451
Si             -3.60133970     -0.57127766     -0.79584330     -0.32322400     -0.05572000     -0.07162600      0.00596000     -0.00147000      0.04278000      14     -0.00124208      0.00129888      0.00142148
Si              2.14025038     -6.21426387     -6.12545868      0.18982400     -0.56592900     -0.56370900      0.00285000      0.03919000      0.00229000      14     -0.00171678     -0.00098705      0.00331218
Si              2.12308290     -6.24410821     -0.59619361      0.18736300     -0.56268100     -0.06249300     -0.00584000      0.00146000      0.01485000      14      0.00127241      0.00118327     -0.00231492
Si              2.07443225     -0.65112433     -6.14358008      0.19183200     -0.06290500     -0.56016600     -0.00485000     -0.00916000      0.01348000      14      0.00092933      0.00216824      0.00243541
Si              2.50290487     -1.21965709     -0.25913266      0.23013400     -0.10889100     -0.02704600     -0.00293000     -0.01924000      0.01173000      14      0.00338870      0.00081725     -0.00317755
Si             -6.12211414     -3.33488856     -6.13233634     -0.55744800     -0.31451300     -0.55780900     -0.01921000      0.00902000     -0.01685000      14     -0.00117527      0.00056138     -0.00105123
Si             -6.11438514     -3.38636804     -0.68290851     -0.55680600     -0.31394100     -0.06116700     -0.02392000      0.00652000     -0.00603000      14      0.00112610     -0.00486408     -0.00240425
Si             -6.29839689      2.22790099     -6.31285456     -0.56422800      0.18804200     -0.56405700     -0.00210000     -0.00839000     -0.00221000      14      0.00090705      0.00028653      0.00080701
Si             -6.24203385      2.15859048     -0.76114174     -0.56374700      0.18519100     -0.06291800     -0.00835000      0.00274000      0.00360000      14     -0.00289681      0.00006508      0.00073144
Si             -0.66208715     -3.39043556     -6.09089949     -0.06018500     -0.31612100     -0.55650200      0.00381000      0.02703000     -0.03229000      14      0.00046393     -0.00684584      0.00197424
Si             -0.55940929     -3.44948097     -0.59157533     -0.05453600     -0.31055800     -0.05533600     -0.01222000      0.00178000     -0.01034000      14     -0.00055097      0.00452541     -0.00237716
Si             -0.74782863      2.13717553     -6.27129348     -0.06215300      0.18683400     -0.56316000     -0.01148000     -0.00947000     -0.01679000      14     -0.00284771      0.00224057      0.00039360
Si             -0.97235287      2.54120757     -0.96528149     -0.08392000      0.22164000     -0.08374000     -0.00322000     -0.02082000     -0.01448000      14      0.00435582      0.00278577     -0.00371663
Si             -3.35256479     -3.31540298     -3.35365372     -0.30680500     -0.30588000     -0.30647700      0.00055000     -0.03096000     -0.01163000      14      0.00295814     -0.00030185     -0.00064727
Si             -3.36594417     -3.45188511      2.07278986     -0.31094700     -0.31241200      0.18767400     -0.00130000     -0.00017000      0.00743000      14     -0.00181149      0.00008819     -0.00165624
Si             -3.55358331      2.20832394     -3.59774804     -0.31633900      0.19228600     -0.31767000     -0.00260000      0.00065000      0.01101000      14     -0.00208560     -0.00210220      0.00000554
Si             -3.52896421      2.19199940      2.10066877     -0.32187500      0.19856000      0.19482900      0.00732000     -0.01168000     -0.03988000      14     -0.00061496     -0.00075467     -0.00293589
Si              2.08050761     -3.46491833     -3.40123534      0.18771200     -0.31410100     -0.31282000      0.00134000      0.00665000     -0.00783000      14     -0.00036127      0.00146981     -0.00622737
Si              2.35976579     -3.78936804      2.36366998      0.20441100     -0.33597200      0.20367200      0.02648000      0.00707000      0.00685000      14     -0.00023145     -0.00440451     -0.00433776
Si              2.07438741      2.21306455     -3.56853437      0.19045200      0.19933800     -0.32250600     -0.01886000     -0.02753000      0.01647000      14     -0.00047941     -0.00085483      0.00072877
Si              2.00669836      1.94164396      1.94515788      0.18188800      0.18084600      0.17872400     -0.01599000     -0.00609000      0.02250000      14     -0.00165971      0.00655441     -0.00325984
Si             -6.13845769     -6.09851419     -3.38098545     -0.56075300     -0.56048500     -0.31033200     -0.02108000     -0.00063000     -0.00811000      14     -0.00174851      0.00092953     -0.00232534
Si             -6.12110387     -6.20671617      2.11317016     -0.56288500     -0.56591300      0.18805000      0.00858000      0.02841000     -0.00208000      14      0.00182159     -0.00142097     -0.00201927
Si             -6.23401987     -0.55916977     -3.51974175     -0.56427400     -0.06147000     -0.31765100     -0.01273000      0.01457000      0.02556000      14      0.00025600      0.00150763     -0.00123624
Si             -6.09140647     -0.69602896      2.15391497     -0.55427900     -0.06384700      0.19761400     -0.01237000     -0.02619000     -0.01231000      14     -0.00002061      0.00299442      0.00055712
Si             -0.61963791     -6.09255140     -3.47048861     -0.06164200     -0.55432300     -0.31858600     -0.01304000      0.00169000     -0.00906000      14      0.00236674     -0.00089880      0.00021216
Si             -0.58987017     -6.22221654      2.15396896     -0.06104000     -0.56189300      0.18772600      0.00228000     -0.00759000     -0.00108000      14      0.00272007      0.00566428      0.00002877
Si             -0.74450509     -0.59336302     -3.46967855     -0.06645700     -0.06002500     -0.31734100     -0.00249000     -0.00047000     -0.00716000      14     -0.00134207      0.00294283     -0.00443780
Si             -0.32794463     -1.16752671      2.42520903     -0.02939300     -0.10254400      0.22237200      0.02982000     -0.01146000      0.02452000      14     -0.00017084     -0.00503123     -0.00117130
Si             -2.04013792     -4.72044927     -4.75268054     -0.18668100     -0.43367700     -0.43394800     -0.00595000     -0.02931000     -0.00463000      14      0.00172437      0.00121877     -0.00295021
Si             -1.95477388     -4.82232147      0.75367174     -0.18424100     -0.43682100      0.06484000      0.00600000     -0.00747000     -0.01842000      14     -0.00122736     -0.00127586      0.00272448
Si             -2.10793052      0.78694629     -4.86611796     -0.18871900      0.06332700     -0.43754600      0.00895000      0.01225000     -0.00910000      14     -0.00050027     -0.00205792     -0.00229996
Si             -2.46817659      1.22371018      0.28500664     -0.22700700      0.10935200      0.02942400      0.00646000      0.01866000     -0.00541000      14     -0.00509159      0.00155240      0.00430885
Si              3.50438048     -4.85136110     -4.72198123      0.31412000     -0.44025000     -0.43598800      0.01501000     -0.00324000      0.01279000      14     -0.00114183     -0.00431434     -0.00130143
Si              3.60239417     -4.97399738      0.76919655      0.32070400     -0.44522300      0.06340700      0.00208000      0.00577000      0.00551000      14     -0.00043242      0.00372085      0.00220801
Si              3.43304602      0.71205703     -4.81278366      0.31346000      0.06292700     -0.43687300      0.00578000     -0.00877000      0.02324000      14     -0.00020160     -0.00339451     -0.00116605
Si              3.63605587      0.57541977      0.82176024      0.32636900      0.05624100      0.07404900     -0.00628000     -0.00799000     -0.04381000      14      0.00103226     -0.00218923     -0.00137190
Si             -4.76469032     -1.95840948     -4.76503077     -0.43257300     -0.18763200     -0.43364400     -0.00325000      0.00556000      0.00503000      14     -0.00108069     -0.00037038     -0.00140813
Si             -4.75285290     -2.02083816      0.71885218     -0.43312700     -0.18478300      0.06524500      0.00824000      0.00372000     -0.00463000      14      0.00281990      0.00034849     -0.00082898
Si             -4.94098204      3.60435411     -4.94560450     -0.43934400      0.31484400     -0.43984200      0.01654000     -0.00140000      0.01543000      14      0.00136654     -0.00015027      0.00151578
Si             -4.88052559      3.52413491      0.64063803     -0.44007200      0.31444000      0.06347500      0.03068000     -0.01912000      0.00505000      14     -0.00083721      0.00481179      0.00206823
Si              0.71434205     -2.00135709     -4.73841257      0.06526500     -0.18638300     -0.43451600      0.00921000      0.01075000      0.01928000      14      0.00281091     -0.00203312     -0.00010526
Si              1.00705796     -2.53710879      0.99120216      0.08706700     -0.22124500      0.08614400      0.00612000      0.02289000      0.01143000      14     -0.00456489     -0.00256099      0.00399620
Si              0.62859630      3.52628289     -4.91877538      0.06326000      0.31660800     -0.44118600     -0.00009000     -0.03281000      0.03228000      14     -0.00032830      0.00644956     -0.00218429
Si              0.59408966      3.45356547      0.61749464      0.05769600      0.31102100      0.05767400      0.00994000     -0.00126000      0.01039000      14      0.00078884     -0.00431656      0.00234749
Si             -1.97199503     -1.93752691     -1.91926003     -0.17879800     -0.18034300     -0.17634200      0.01987000      0.00375000     -0.02246000      14      0.00142824     -0.00684785      0.00369865
Si             -2.03965289     -2.20892225      3.59452220     -0.18731200     -0.19883600      0.32476500      0.00587000      0.02074000     -0.00777000      14     -0.00053650      0.00003171     -0.00116430
Si             -2.32503770      3.79347489     -2.33772565     -0.20122300      0.33638800     -0.20127100     -0.02372000     -0.00806000     -0.01632000      14     -0.00011109      0.00416617      0.00399859
Si             -2.04582039      3.46900464      3.42715366     -0.18459000      0.31449600      0.31512700      0.00284000     -0.00178000      0.01158000      14      0.00055649     -0.00110463      0.00661333
Si              3.56365146     -2.18787383     -2.07469650      0.32500100     -0.19813800     -0.19241300     -0.01109000      0.01628000      0.02456000      14      0.00091369      0.00018058      0.00167277
Si              3.58830405     -2.20423302      3.62367120      0.31954900     -0.19188600      0.32002200      0.00142000      0.00073000     -0.00650000      14      0.00189196      0.00240091      0.00020219
Si              3.40062504      3.45598323     -2.04688297      0.31401800      0.31287500     -0.18536900      0.00606000     -0.00235000     -0.00237000      14      0.00252974      0.00025183      0.00224950
Si              3.38723500      3.31951242      3.37959259      0.30994300      0.30634300      0.30884800      0.00224000      0.02668000      0.00861000      14     -0.00252278      0.00024374      0.00043471
Si             -4.74019103     -4.72604764     -2.02392737     -0.43399600     -0.43368900     -0.18577800     -0.01129000     -0.02198000      0.00757000      14     -0.00185371      0.00144915      0.00280292
Si             -4.72283079     -4.83422719      3.47028330     -0.43610900     -0.43913100      0.31264000      0.02249000     -0.00127000      0.00593000      14      0.00161307     -0.00138678      0.00198059
Si             -4.90347967      0.83379333     -2.19618055     -0.44251500      0.06426400     -0.19523200      0.00141000      0.02366000      0.00135000      14     -0.00005713     -0.00287450     -0.00099241
Si             -4.76087947      0.69694343      3.47745577     -0.43257300      0.06185400      0.31992300      0.01499000     -0.01038000     -0.01349000      14     -0.00024432     -0.00160495      0.00161853
Si              0.75819261     -4.84422625     -1.99645433      0.06417500     -0.43768000     -0.18538300     -0.00482000      0.01026000     -0.00213000      14     -0.00304508     -0.00557641     -0.00027861
Si              0.78793375     -4.97389460      3.62799483      0.06478700     -0.44522900      0.32088700      0.01090000     -0.00365000      0.01857000      14     -0.00220038      0.00132091     -0.00014936
Si              0.36262568      1.17161620     -2.39917069      0.03243900      0.10295500     -0.22008600     -0.01172000      0.02172000     -0.01322000      14      0.00028774      0.00586125     -0.00191667
Si              0.77918748      0.59746346      3.49564349      0.06954300      0.06053500      0.31971000      0.00227000     -0.01376000     -0.00035000      14      0.00172405     -0.00268035      0.00405283
Si              1.00022669      0.43763654     -0.37134778      0.08845100      0.02972600     -0.04284000     -0.02180000     -0.00323000     -0.02355000      14      0.00264016     -0.00131444     -0.00070136
Si             -0.96563135     -0.43346835      0.39719848     -0.08528900     -0.02929400      0.04520400      0.01526000      0.01177000      0.01210000      14     -0.00046353     -0.00118617      0.00311037
