66
max_scf_cycles=250 perc_extra_bands=200.00000000 mixing_scheme=pulay energy=-10763.82049460 stress="0.00011329      -0.00006911      -0.00006246      -0.00006911       0.00011375      -0.00005948      -0.00006246      -0.00005948      -0.00027791" castep_run_time=15086.93000000 spin_polarized=False fix_occupancy=False virial="-0.07130740       0.03496676      -0.05355595       0.03496676      -0.05121031      -0.11751647      -0.05355595      -0.11751647       0.01554823" mix_history_length=20 num_dump_cycles=0 task=GeometryOptimization opt_strategy=speed calculate_stress=True enthalpy=-10764.00530000 elec_energy_tol=0.00000010 smearing_width=0.05000000 castep_file_name=castep.castep fine_grid_scale=4.00000000 xc_functional=PW91 finite_basis_corr=automatic cut_off_energy=250.00000000 cutoff=-1.00000000 nneightol=1.20000000 pbc="T T T" Lattice="10.95343168      -0.05916931      -0.01466755      -0.05916862      10.95352353      -0.01459752      -0.01480058      -0.01473688      11.19890640" Properties=species:S:1:pos:R:3:frac_pos:R:3:force:R:3:Z:I:1:forces:R:3
Si             -2.72262894     -2.43616828     -6.13644873     -0.24778700     -0.22177800     -0.54818900      0.00000000     -0.00039000     -0.01673000      14     -0.00423225     -0.00436937     -0.00066450
Si             -2.63686156     -2.35080968     -0.53052399     -0.24543200     -0.21960400     -0.05065700     -0.00312000     -0.00467000     -0.00531000      14     -0.00399144     -0.00372397     -0.00555741
Si             -2.67258536      3.14386895     -6.09914329     -0.24400300      0.28481800     -0.54568200      0.00055000     -0.00165000      0.00930000      14      0.00226887      0.00014555      0.00192423
Si             -2.74426314      3.25249905     -0.20278835     -0.24782200      0.29267100     -0.02449300     -0.00401000     -0.00373000      0.01510000      14      0.00143855     -0.00205225      0.00077173
Si              2.85759123     -2.38627307     -6.09917018      0.25884600     -0.21803500     -0.54564600     -0.00137000      0.00342000      0.00835000      14      0.00002015      0.00225898      0.00185543
Si              2.96592831     -2.45776949     -0.20281148      0.26659800     -0.22173200     -0.02447800     -0.00376000     -0.00239000      0.01665000      14     -0.00199214      0.00144543      0.00082365
Si              2.89203336      3.17851892     -6.15064789      0.26361400      0.28964200     -0.54992800      0.01759000      0.01439000     -0.01009000      14      0.00094523      0.00096040     -0.00293236
Si              2.76665481      3.05302763     -0.52143913      0.25127700      0.27726900     -0.04565000      0.00713000      0.00324000      0.00451000      14      0.00156790      0.00158602     -0.00405929
Si             -5.34723540     -5.06087993     -6.02266821     -0.49132300     -0.46527600     -0.53899900     -0.00189000     -0.00400000     -0.00433000      14      0.00391097      0.00392978      0.00502413
Si             -5.35675035     -5.07031295     -0.49898973     -0.49333400     -0.46727800     -0.04350300      0.00339000      0.00161000     -0.00889000      14     -0.00149372     -0.00156275     -0.00030813
Si             -5.44278660      0.39619697     -6.05928418     -0.49690400      0.03362800     -0.54252300      0.01137000      0.00113000     -0.00082000      14     -0.00043485      0.00018108      0.00344484
Si             -5.39483223      0.43473247     -0.50200160     -0.49201600      0.03694800     -0.04112600     -0.00075000     -0.00560000      0.00931000      14     -0.00406527     -0.00090430      0.00262239
Si              0.10977879     -5.15639751     -6.05933351      0.00764100     -0.47088400     -0.54255500      0.00144000      0.00894000     -0.00072000      14      0.00030562     -0.00044846      0.00343523
Si              0.14829110     -5.10848380     -0.50206467      0.01090800     -0.46602900     -0.04114400     -0.00022000     -0.00152000      0.00858000      14     -0.00083095     -0.00407379      0.00264377
Si              0.07073727      0.35711249     -6.18308470      0.00715800      0.03317400     -0.54721800     -0.00674000     -0.00710000     -0.00660000      14     -0.00150981     -0.00154995      0.00086691
Si             -1.03130200      1.62055384     -0.38694362     -0.09550200      0.14426500     -0.03617400     -0.00485000     -0.00109000     -0.00777000      14     -0.00489467     -0.00083665      0.00354661
Si             -2.59904941     -5.09609630     -3.24066208     -0.23979000     -0.46759300     -0.29280600      0.01075000      0.00038000      0.00743000      14     -0.00261372      0.00381693     -0.00050774
Si             -2.66252034     -5.05978381      2.34908565     -0.24305700     -0.46410200      0.20953500      0.00159000     -0.00197000      0.00563000      14      0.00390586     -0.00088374      0.00021780
Si             -2.69467439      0.28846591     -3.49974460     -0.24688200      0.02579400     -0.30932900      0.01298000      0.00602000     -0.00209000      14      0.00332516     -0.00034146     -0.00209590
Si             -2.95199069      0.57518823      2.52992563     -0.26792300      0.04993700      0.22561400      0.00034000      0.01508000     -0.00110000      14      0.00084228      0.00277175     -0.00286869
Si              2.82277042     -5.11409986     -3.25335228      0.25691800     -0.46548400     -0.29149000     -0.00763000      0.00054000     -0.00187000      14     -0.00305039      0.00160838     -0.00247186
Si              2.92673448     -5.25862266      2.39822391      0.26389000     -0.47620800      0.21047700      0.00404000      0.00332000      0.00247000      14      0.00013731      0.00170888     -0.00138564
Si              2.84736704      0.46167288     -3.50576257      0.26196000      0.04343400     -0.31081600     -0.00709000     -0.00396000      0.00302000      14     -0.00673627      0.00157145      0.00377534
Si              2.80909470      0.36014062      2.27311410      0.25557800      0.03625200      0.20496200     -0.00515000     -0.01070000      0.00335000      14     -0.00306967     -0.00253833     -0.00215291
Si             -5.38238743     -2.31261026     -3.24048331     -0.49352700     -0.21369600     -0.29271000      0.00061000      0.00520000      0.00660000      14      0.00384647     -0.00270743     -0.00067030
Si             -5.34613477     -2.37610356      2.34902568     -0.49008500     -0.21709000      0.20951500     -0.00025000      0.00053000      0.00586000      14     -0.00085909      0.00399531      0.00031791
Si             -5.40047053      3.10918386     -3.25335817     -0.49150900      0.28292800     -0.29153200      0.00182000     -0.01010000     -0.00108000      14      0.00158607     -0.00311031     -0.00231351
Si             -5.54508835      3.21330307      2.39839162     -0.50221700      0.28992600      0.21047700      0.00408000      0.00462000      0.00353000      14      0.00172101      0.00013528     -0.00151787
Si              0.00211651     -2.40828038     -3.49983521     -0.00020800     -0.22088000     -0.30938900      0.00558000      0.00879000     -0.00034000      14     -0.00033619      0.00341624     -0.00203062
Si              0.28864449     -2.66547757      2.52999611      0.02387000     -0.24180300      0.22557800      0.01730000     -0.00399000     -0.00053000      14      0.00272536      0.00089064     -0.00292035
Si              0.17530992      3.13383635     -3.50573046      0.01745300      0.28799100     -0.31083200     -0.00340000     -0.00688000      0.00304000      14      0.00160986     -0.00682349      0.00373291
Si              0.07369624      3.09555718      2.27310110      0.01024800      0.28152100      0.20486800     -0.01026000     -0.00639000      0.00515000      14     -0.00259380     -0.00313191     -0.00218887
Si             -6.69807276     -6.41171220     -4.61180126     -0.61645100     -0.59042000     -0.41513000     -0.00045000      0.00073000     -0.00142000      14     -0.00118559     -0.00108629      0.00214921
Si             -6.74518212     -6.45876579      0.90298791     -0.62149600     -0.59547100      0.07920000      0.00316000      0.00383000     -0.00125000      14      0.00193902      0.00189239      0.00072223
Si             -6.74703684     -0.99661494     -4.66610006     -0.61792200     -0.09334800     -0.42019200      0.00194000     -0.00036000     -0.00424000      14     -0.00240568     -0.00520196     -0.00504283
Si             -6.62629046     -0.93368130      1.02134170     -0.61006500     -0.09022700      0.08996300      0.00039000      0.00011000     -0.01067000      14      0.00327459      0.00046353     -0.00127437
Si             -1.28298028     -6.46075127     -4.66620908     -0.11934100     -0.59193400     -0.42025000     -0.00186000      0.00308000     -0.00308000      14     -0.00533766     -0.00240948     -0.00500491
Si             -1.22012831     -6.33990246      1.02132077     -0.11623000     -0.58409400      0.08991700     -0.00248000      0.00374000     -0.00730000      14      0.00044093      0.00337545     -0.00130517
Si             -1.35859832     -1.07218512     -4.88990262     -0.12459900     -0.09857300     -0.43243700      0.00792000      0.00903000      0.00748000      14      0.00290170      0.00285407      0.00427218
Si             -2.07010414     -0.19540162      0.59010685     -0.18753500     -0.01944700      0.05150700     -0.00556000      0.00915000      0.00480000      14      0.00651583     -0.00222948      0.00526098
Si             -4.00863792     -3.72220628     -4.60754960     -0.36712800     -0.34108600     -0.41380500     -0.00292000     -0.00155000     -0.01472000      14     -0.00049814     -0.00047735     -0.00097605
Si             -3.98479667     -3.69845762      0.91846349     -0.36672200     -0.34076400      0.08313100     -0.00779000     -0.00672000      0.00544000      14      0.00126587      0.00122659      0.00083720
Si             -4.06115053      1.78820813     -4.71849392     -0.37005900      0.15987400     -0.42126100      0.00298000      0.00096000     -0.00315000      14      0.00119892      0.00562681     -0.00099908
Si             -4.24451582      1.89117164      1.01698243     -0.38132400      0.17084600      0.09145900      0.00242000     -0.00906000      0.00179000      14      0.00144314     -0.00517700     -0.00073318
Si              1.50185066     -3.77479265     -4.71855491      0.13390700     -0.34407500     -0.42126600     -0.00241000      0.00299000     -0.00275000      14      0.00562386      0.00114831     -0.00097418
Si              1.60453377     -3.95797345      1.01695042      0.14481300     -0.35529800      0.09146100     -0.01374000      0.00612000      0.00134000      14     -0.00510745      0.00131049     -0.00078817
Si              1.51600226      1.80242962     -4.92071222      0.14063000      0.16663900     -0.43506000     -0.00989000     -0.01014000      0.00827000      14     -0.00262051     -0.00256473      0.00590344
Si              1.33044315      1.61688725      0.73397707      0.11938100      0.14530100      0.06965500      0.00799000      0.00646000      0.00507000      14      0.00042128      0.00044363      0.00632464
Si             -6.70505881     -3.71396118     -7.44647108     -0.61499200     -0.34426300     -0.66721600     -0.00714000      0.00125000     -0.00253000      14     -0.00338308      0.00093693     -0.00046161
Si             -6.78279935     -3.65083027     -1.84845648     -0.61861000     -0.33803800     -0.16667700     -0.00931000     -0.00567000     -0.00387000      14     -0.00001575      0.00047379     -0.00064612
Si             -6.81097873      1.77340030     -7.46471033     -0.61920100      0.15910800     -0.66824400     -0.00252000      0.00523000     -0.00878000      14      0.00167261     -0.00065287     -0.00069940
Si             -6.82006154      1.75023722     -1.89723308     -0.61943200      0.15678300     -0.16923100     -0.00119000      0.00320000     -0.00132000      14     -0.00006027     -0.00134628      0.00217725
Si             -1.29108781     -3.79965168     -7.40770023     -0.12021200     -0.34848100     -0.66139600      0.00194000      0.00074000     -0.00661000      14      0.00387578      0.00074062     -0.00568912
Si             -1.21070227     -3.70923785     -1.90387310     -0.11254100     -0.34144600     -0.16933900      0.00298000      0.00939000      0.00374000      14      0.00203008     -0.00023440      0.00116597
Si             -1.28828549      1.79473776     -7.49869122     -0.11720100      0.16141500     -0.66798800     -0.00436000     -0.00161000      0.01213000      14      0.00188595     -0.00234822      0.00215736
Si             -0.75019223      1.20442161     -2.59280216     -0.06658200      0.11010900     -0.23327400     -0.00825000     -0.00611000     -0.00831000      14      0.00400160      0.00045438     -0.00555719
Si             -4.00027624     -6.41875941     -7.44638069     -0.37027200     -0.58896100     -0.66719300      0.00155000     -0.00830000     -0.00223000      14      0.00088613     -0.00336422     -0.00051414
Si             -3.93730837     -6.49637577     -1.84853305     -0.36411700     -0.59258300     -0.16669000     -0.00781000     -0.00807000     -0.00471000      14      0.00051113      0.00002433     -0.00062071
Si             -4.08605674     -1.00462469     -7.40773965     -0.37452300     -0.09422800     -0.66139200      0.00029000      0.00278000     -0.00599000      14      0.00062502      0.00385299     -0.00572807
Si             -3.99542299     -0.92437140     -1.90359551     -0.36729400     -0.08654100     -0.16918900      0.00689000      0.00644000      0.00579000      14     -0.00024917      0.00212453      0.00107036
Si              1.48694319     -6.52458341     -7.46482103      0.13307900     -0.59324400     -0.66828700      0.00319000      0.00040000     -0.00901000      14     -0.00054490      0.00167469     -0.00058418
Si              1.46386986     -6.53372431     -1.89722797      0.13080800     -0.59344900     -0.16920600     -0.00043000      0.00145000     -0.00215000      14     -0.00149532     -0.00003400      0.00222255
Si              1.50841389     -1.00193608     -7.49862879      0.13542600     -0.09120400     -0.66793200     -0.00133000     -0.00343000      0.01129000      14     -0.00247034      0.00195726      0.00211152
Si              0.91794523     -0.46376840     -2.59276602      0.08409800     -0.04064100     -0.23323400     -0.00505000     -0.00467000     -0.01173000      14      0.00038418      0.00396242     -0.00581986
Si              1.33397522     -0.74480002     -0.38689307      0.11813000     -0.06938800     -0.03611600     -0.00086000     -0.00831000     -0.00311000      14     -0.00086779     -0.00494766      0.00374548
Si             -0.48207548     -1.78327141      0.59038701     -0.04566500     -0.16150100      0.05149300      0.01165000     -0.00417000      0.00215000      14     -0.00210841      0.00616679      0.00494106
