66
max_scf_cycles=250 perc_extra_bands=200.00000000 mixing_scheme=pulay energy=-10763.38248210 stress="-0.00032897      -0.00028444       0.00024773      -0.00028444      -0.00023265      -0.00026186       0.00024773      -0.00026186      -0.00018428" castep_run_time=14243.63000000 spin_polarized=False fix_occupancy=False virial="-0.23740247       0.03308494      -0.07018244       0.03308494      -0.17598146       0.11607446      -0.07018244       0.11607446      -0.14718209" mix_history_length=20 num_dump_cycles=0 task=GeometryOptimization opt_strategy=speed calculate_stress=True enthalpy=-10762.18850000 elec_energy_tol=0.00000010 smearing_width=0.05000000 castep_file_name=castep.castep fine_grid_scale=4.00000000 xc_functional=PW91 finite_basis_corr=automatic cut_off_energy=250.00000000 cutoff=-1.00000000 nneightol=1.20000000 pbc="T T T" Lattice="11.01234799      -0.01917644       0.01871901      -0.01917849      11.01531337      -0.01926962       0.01872338      -0.01927206      11.01675242" Properties=species:S:1:pos:R:3:frac_pos:R:3:force:R:3:Z:I:1:forces:R:3
Si             -4.84328115     -6.13129861     -2.04407658     -0.43936600     -0.55884900     -0.18723500      0.00355000     -0.00080000     -0.00417000      14      0.00318520     -0.00325610      0.00273697
Si             -4.77851538     -6.19685124      3.45860989     -0.43527800     -0.56287200      0.31328600     -0.02885000      0.01964000      0.02154000      14      0.00548485     -0.00495266      0.00039150
Si             -4.80866866     -0.69430213     -2.08726128     -0.43833800     -0.06243000     -0.18883000      0.01108000      0.00946000      0.00926000      14      0.00159574      0.00024886      0.00201448
Si             -4.82226765     -0.65728139      3.45969933     -0.43776600     -0.06101700      0.31495600     -0.00749000      0.00506000      0.00558000      14     -0.00322845      0.00096147      0.00261321
Si              0.73342706     -6.18506337     -2.06856699      0.06417100     -0.55974900     -0.18894800      0.00036000     -0.00350000      0.01764000      14     -0.00050408     -0.00108702      0.00238088
Si              0.69606322     -6.17211477      3.47870420      0.06285500     -0.56055700      0.31494500     -0.01113000      0.01069000      0.01458000      14     -0.00101034      0.00260550      0.00276083
Si              0.72563994     -0.70582708     -2.11118670      0.06551800     -0.06383300     -0.19662700      0.00628000     -0.00478000     -0.00112000      14      0.00557433     -0.00530063     -0.00335213
Si              0.73723815     -0.71796432      3.50607658      0.06535600     -0.06362400      0.32008700     -0.01257000      0.01240000     -0.00196000      14      0.00227962     -0.00252287     -0.00463329
Si             -2.08374405     -3.50633378     -2.08579916     -0.19041300     -0.31696600     -0.19041200      0.02138000      0.01288000      0.00952000      14     -0.00048351     -0.00144137      0.00009770
Si             -2.07904725     -3.42605268      3.44592039     -0.18651300     -0.31094900      0.31269700     -0.01043000     -0.01167000      0.01795000      14      0.00120866     -0.00342721      0.00346687
Si             -2.22153850      2.24261642     -2.22382735     -0.19310100      0.19503500     -0.19330100      0.02414000     -0.01862000      0.01514000      14      0.00192318     -0.00205704      0.00223936
Si             -2.08391941      2.10448515      3.52586859     -0.19048300      0.19223900      0.31874200      0.01962000     -0.01210000     -0.01333000      14     -0.00047944      0.00018549      0.00127542
Si              3.44431131     -3.42542737     -2.07977794      0.31276000     -0.31095700     -0.18654700      0.00976000     -0.01648000     -0.01706000      14      0.00329873     -0.00387253      0.00051721
Si              3.59663235     -3.57760590      3.59679649      0.32043500     -0.31862400      0.32041200     -0.02292000      0.01757000     -0.02063000      14     -0.00105112      0.00161220     -0.00071740
Si              3.52590534      2.10501720     -2.08651195      0.31885000      0.19223100     -0.19050600     -0.01785000     -0.01338000      0.00611000      14      0.00093331      0.00021614     -0.00005806
Si              3.44423760      2.09887242      3.44519927      0.31272600      0.18838500      0.31271000      0.00527000      0.00697000      0.01202000      14      0.00282249     -0.00146496      0.00383767
Si             -4.79745754     -3.41981007     -4.79970717     -0.43524300     -0.31153500     -0.43536800     -0.02926000     -0.02116000     -0.02290000      14      0.00494179     -0.00024098      0.00494570
Si             -4.82190485     -3.43947668      0.67688276     -0.43773200     -0.31317700      0.06282100     -0.01122000     -0.00257000     -0.00807000      14     -0.00309692     -0.00293927     -0.00089364
Si             -4.86214549      2.08298125     -4.86509171     -0.43935000      0.18898000     -0.43944300      0.00375000      0.01168000      0.00685000      14      0.00286056     -0.00329808      0.00270048
Si             -4.80885867      2.10619400      0.71373580     -0.43838000      0.19058300      0.06419100      0.01118000     -0.01078000     -0.01470000      14      0.00151309     -0.00170329     -0.00074702
Si              0.67740672     -3.43959033     -4.82444338      0.06287700     -0.31322500     -0.43777500     -0.01902000     -0.01559000     -0.00273000      14     -0.00085374     -0.00278885     -0.00275417
Si              0.73720749     -3.48618814      0.73717210      0.06544700     -0.31825700      0.06537700     -0.02158000      0.01179000     -0.00647000      14      0.00203591      0.00386032      0.00247820
Si              0.71431143      2.10674199     -4.81192278      0.06418800      0.19071700     -0.43852300     -0.00628000     -0.01772000      0.00848000      14     -0.00037657     -0.00237625      0.00139978
Si              0.72597813      2.12999072      0.72554031      0.06548700      0.19812100      0.06551000      0.00018000     -0.00902000      0.00892000      14      0.00574435      0.00376335      0.00540294
Si             -2.04348597     -6.13176105     -4.84565679     -0.18715100     -0.55884800     -0.43941900     -0.01026000     -0.00616000      0.00270000      14      0.00367808     -0.00353016      0.00317308
Si             -2.06651463     -6.18499426      0.73276911     -0.18883900     -0.55963400      0.06421100      0.00156000     -0.01406000     -0.01415000      14      0.00148215     -0.00107980     -0.00097140
Si             -2.08565479     -0.69411778     -4.81177661     -0.18884200     -0.06238600     -0.43854500     -0.00379000      0.00908000      0.01036000      14      0.00176357      0.00066795      0.00089062
Si             -2.10938794     -0.70729725      0.72674867     -0.19600300     -0.06389200      0.06572900      0.01749000     -0.01090000      0.01110000      14     -0.00422596     -0.00571044      0.00549918
Si              3.45877324     -6.19621792     -4.78124716      0.31328000     -0.56288400     -0.43533800      0.02297000      0.02404000     -0.02647000      14     -0.00081472     -0.00466776      0.00446937
Si              3.47729141     -6.17264612      0.69582534      0.31506000     -0.56053600      0.06275300      0.01217000      0.00493000      0.00109000      14      0.00380349      0.00304888     -0.00076852
Si              3.45848196     -0.65750050     -4.82427627      0.31507200     -0.06103700     -0.43771700      0.01014000      0.00950000     -0.00215000      14      0.00336710      0.00099043     -0.00285008
Si              3.50480684     -0.71726669      0.73650184      0.31977600     -0.06362700      0.06531800     -0.02371000      0.01782000     -0.00602000      14     -0.00355422     -0.00224232      0.00265497
Si             -3.43816612     -4.78012755     -6.19742215     -0.31147100     -0.43530400     -0.56297400     -0.02061000     -0.02684000      0.02923000      14      0.00082616      0.00430763     -0.00431510
Si             -3.43798237     -4.82298766     -0.65767443     -0.31322800     -0.43759100     -0.06107000     -0.01036000     -0.01710000      0.00758000      14     -0.00327259     -0.00271272      0.00061060
Si             -3.45706138      0.69645689     -6.17362718     -0.31322100      0.06287000     -0.56058200     -0.01082000     -0.01507000      0.00797000      14     -0.00309120     -0.00082619      0.00289200
Si             -3.48463767      0.73694110     -0.71773801     -0.31788400      0.06539700     -0.06365700      0.01452000     -0.01300000      0.01781000      14      0.00407597      0.00275806     -0.00238990
Si              2.06412904     -4.84459330     -6.13295927      0.18897400     -0.43936400     -0.55890100      0.01167000      0.00070000     -0.00546000      14     -0.00470259      0.00321617     -0.00314031
Si              2.10587224     -4.81060700     -0.69465339      0.19072500     -0.43846400     -0.06237800     -0.01303000      0.00244000     -0.00408000      14     -0.00132175      0.00088652      0.00033440
Si              2.08709589      0.73305575     -6.18620684      0.19068800      0.06417700     -0.55973100     -0.00633000     -0.00468000     -0.00804000      14     -0.00122911     -0.00021887     -0.00121516
Si              2.12955151      0.72695170     -0.70788912      0.19783500      0.06574800     -0.06405600     -0.01651000      0.00661000     -0.01149000      14      0.00407724      0.00583259     -0.00563253
Si             -6.14874065     -2.02489171     -6.15147590     -0.55884800     -0.18720400     -0.55886700      0.00179000     -0.00715000     -0.00309000      14     -0.00373369      0.00426010     -0.00386550
Si             -6.18331464     -2.06728824     -0.71369696     -0.55983500     -0.18880500     -0.06247300     -0.00270000      0.00827000      0.01161000      14     -0.00078383      0.00148817      0.00099147
Si             -6.21350609      3.47797391     -6.21702324     -0.56292000      0.31330000     -0.56293600      0.02962000      0.02947000      0.02606000      14     -0.00407194     -0.00049192     -0.00364740
Si             -6.17027458      3.47832901     -0.67673297     -0.56046600      0.31489000     -0.06111700      0.01402000      0.01729000      0.01141000      14      0.00247576      0.00339968      0.00083672
Si             -0.71288456     -2.06777144     -6.18609918     -0.06243700     -0.18889100     -0.55968400      0.01448000      0.00606000     -0.01372000      14      0.00072149      0.00210870     -0.00103343
Si             -0.70580662     -2.11031962     -0.70669960     -0.06362700     -0.19623900     -0.06382700     -0.00655000      0.00014000     -0.00893000      14     -0.00583491     -0.00350163     -0.00552051
Si             -0.67599807      3.47853202     -6.17347101     -0.06097300      0.31496000     -0.56056200      0.00168000      0.01566000      0.00558000      14      0.00096021      0.00336082      0.00249038
Si             -0.71700100      3.50591281     -0.71838137     -0.06360200      0.32007300     -0.06367200      0.01131000     -0.01220000      0.01712000      14     -0.00263605     -0.00435184     -0.00233646
Si             -3.42405184     -2.07912925     -3.42650139     -0.31088600     -0.18655100     -0.31095600     -0.01197000     -0.00944000     -0.01959000      14     -0.00315404      0.00061452     -0.00284970
Si             -3.50575070     -2.08534388      2.10541530     -0.31696400     -0.19044700      0.19221900      0.00791000      0.01749000     -0.01336000      14     -0.00128352      0.00016292     -0.00075030
Si             -3.57649745      3.59721727     -3.57786497     -0.31865600      0.32045500     -0.31868300      0.02791000     -0.02330000      0.01946000      14      0.00043699      0.00046254     -0.00062368
Si             -3.42417353      3.44521095      2.09857136     -0.31092700      0.31273000      0.18826400     -0.01255000      0.02175000      0.01392000      14     -0.00336340      0.00316884      0.00000035
Si              2.10405006     -2.08476562     -3.50700870      0.19227600     -0.19052100     -0.31709400     -0.00728000      0.01767000      0.01369000      14     -0.00000138     -0.00010581     -0.00181101
Si              2.24164176     -2.22282934      2.24251679      0.19492300     -0.19329300      0.19508800     -0.02827000      0.03041000     -0.02618000      14      0.00010847      0.00007555     -0.00024644
Si              2.09914952      3.44576385     -3.42712878      0.18828900      0.31275900     -0.31099200      0.01760000      0.01115000     -0.01228000      14     -0.00047220      0.00273752     -0.00319959
Si              2.10389911      3.52604044      2.10465100      0.19216700      0.31879400      0.19213800     -0.00353000     -0.01423000     -0.01554000      14     -0.00011502      0.00157099     -0.00045329
Si             -6.19458518     -4.77954426     -3.43924770     -0.56288800     -0.43530400     -0.31157700      0.02754000     -0.02513000     -0.02214000      14     -0.00433425      0.00453642     -0.00009800
Si             -6.12975065     -4.84512610      2.06355768     -0.55880900     -0.43932300      0.18897000     -0.00697000     -0.00224000      0.00528000      14     -0.00367365      0.00340349     -0.00392084
Si             -6.16988612      0.69614985     -3.45954709     -0.56036100      0.06284800     -0.31320300      0.00482000     -0.01168000     -0.01069000      14      0.00217667     -0.00071756     -0.00295728
Si             -6.18348390      0.73324690      2.08728270     -0.55983200      0.06424900      0.19057700     -0.01229000     -0.01410000     -0.00991000      14     -0.00140647     -0.00130982     -0.00165525
Si             -0.65674077     -4.82349758     -3.44059609     -0.06101400     -0.43773600     -0.31323900      0.00735000      0.00056000     -0.01177000      14      0.00089464     -0.00245061     -0.00263326
Si             -0.69409882     -4.81054249      2.10661499     -0.06239200     -0.43850900      0.19073100      0.01469000      0.01605000     -0.01623000      14      0.00087120      0.00146377     -0.00193044
Si             -0.71707501      0.73767071     -3.48733674     -0.06358400      0.06536400     -0.31833200      0.01646000     -0.00725000      0.00036000      14     -0.00248228      0.00257759      0.00517508
Si             -0.70550859      0.72554389      2.13002108     -0.06368200      0.06553500      0.19823800     -0.00227000      0.00886000      0.00438000      14     -0.00582112      0.00551390      0.00330984
Si             -0.85732755      0.87565858     -0.85585462     -0.06283500      0.06466500     -0.06344200      0.00795000      0.00394000     -0.00500000      14      0.00324391     -0.00313064      0.00271925
Si              0.87745078     -0.85595989      0.87472919      0.06479900     -0.06286700      0.06494400     -0.00377000     -0.00531000      0.00914000      14     -0.00390086      0.00371011     -0.00333542
