66
max_scf_cycles=250 perc_extra_bands=200.00000000 mixing_scheme=pulay energy=-10763.95357590 stress="-0.00006402      -0.00020806       0.00000151      -0.00020806      -0.00006137      -0.00000199       0.00000151      -0.00000199      -0.00065662" castep_run_time=16062.39000000 spin_polarized=False fix_occupancy=False virial="0.07252858       0.03718588      -0.44891679       0.03718588       0.05336120       0.50538577      -0.44891679       0.50538577      -0.08125681" mix_history_length=20 num_dump_cycles=0 task=GeometryOptimization opt_strategy=speed calculate_stress=True enthalpy=-10763.84160000 elec_energy_tol=0.00000010 smearing_width=0.05000000 castep_file_name=castep.castep fine_grid_scale=4.00000000 xc_functional=PW91 finite_basis_corr=automatic cut_off_energy=250.00000000 cutoff=-1.00000000 nneightol=1.20000000 pbc="T T T" Lattice="10.97315177      -0.06701052       0.00014025      -0.06701172      10.97321451      -0.00014743       0.00013525      -0.00013975      11.03734725" Properties=species:S:1:pos:R:3:frac_pos:R:3:force:R:3:Z:I:1:forces:R:3
Si             -5.44264471     -5.44294442     -3.80253018     -0.49895300     -0.49909900     -0.34566100     -0.01723000      0.01093000     -0.03332000      14      0.00086273     -0.00084169      0.00961428
Si             -5.44255505     -5.44303288      1.69330424     -0.49907700     -0.49907300      0.15689000     -0.00143000      0.00861000     -0.02242000      14      0.00023710     -0.00051343     -0.00220663
Si             -5.47616892      0.04366815     -3.88035603     -0.49903700      0.00082600     -0.34704100     -0.00645000      0.02351000     -0.00945000      14      0.00047510     -0.00100787      0.00286157
Si             -5.47607637      0.04361431      1.70059015     -0.49899500      0.00086600      0.15400700     -0.01450000      0.01220000      0.00836000      14      0.00037717     -0.00111969      0.00054828
Si              0.04393425     -5.47641945     -3.88017448      0.00103600     -0.49915100     -0.34704300     -0.01814000      0.01464000     -0.01224000      14      0.00080434     -0.00075523      0.00254023
Si              0.04396716     -5.47650850      1.70072200      0.00100200     -0.49911700      0.15399200     -0.01662000      0.01105000      0.01182000      14      0.00122046     -0.00060811      0.00077354
Si              0.01040645      0.01014276     -3.79784669      0.00101000      0.00088900     -0.34635800     -0.01169000      0.00919000     -0.00473000      14      0.00106650     -0.00044080     -0.00288345
Si             -0.90149329      0.92206067      2.39437015     -0.07561800      0.07746700      0.20171600      0.00617000     -0.00587000     -0.02865000      14     -0.00108626      0.00114151     -0.00346927
Si             -2.70958678     -2.70987468     -3.80905902     -0.24846000     -0.24859500     -0.34568900     -0.00855000      0.02228000      0.01503000      14      0.00432629      0.00259118     -0.00099357
Si             -2.67131869     -2.67171116      1.65689180     -0.24680400     -0.24690100      0.15155700     -0.00137000      0.01981000      0.00390000      14     -0.00262123     -0.00383049     -0.00146384
Si             -2.77538477      2.79598859     -3.83925540     -0.25014800      0.25199200     -0.34692400     -0.01103000      0.02113000     -0.01715000      14     -0.00180565      0.00180280      0.00044952
Si             -2.81735987      2.83794075      1.77860698     -0.26228200      0.26423000      0.15780900     -0.00230000     -0.01258000      0.00826000      14     -0.00099611      0.00117061      0.00325156
Si              2.79627413     -2.77567441     -3.83902553      0.25211500     -0.25022300     -0.34695300     -0.00903000      0.00273000     -0.01285000      14      0.00245844     -0.00290325     -0.00021204
Si              2.83843285     -2.81790767      1.77881538      0.26415500     -0.26227800      0.15775000     -0.01334000      0.01128000      0.01829000      14      0.00166422     -0.00093606      0.00271814
Si              2.73043030      2.73016042     -3.80905680      0.25051800      0.25043500     -0.34572700     -0.02246000     -0.00193000      0.01706000      14     -0.00209385     -0.00411877     -0.00097680
Si              2.69227861      2.69191834      1.65690529      0.24879300      0.24872600      0.15154400     -0.02506000     -0.00311000      0.00649000      14      0.00378842      0.00279398     -0.00155018
Si             -5.42599218     -2.71970716     -6.58550902     -0.49759800     -0.24866400     -0.59495700     -0.02628000      0.00372000      0.00770000      14      0.00314437      0.00039273     -0.00162368
Si             -5.44398889     -2.69721490     -1.05686020     -0.49717500     -0.24947000     -0.09607400     -0.00005000      0.01370000      0.00324000      14     -0.00251597      0.00081739      0.00318521
Si             -5.52633151      2.80703650     -6.58570284     -0.50043200      0.25044000     -0.59493300      0.00320000      0.02314000      0.00610000      14     -0.00240774     -0.00086419     -0.00055882
Si             -5.50821556      2.78450322     -1.05690020     -0.50088100      0.25123900     -0.09606300     -0.01654000      0.00904000      0.00268000      14      0.00291957     -0.00253647      0.00288755
Si              0.04483819     -2.76225620     -6.52067919      0.00092700     -0.25201800     -0.59174300      0.00529000      0.02507000     -0.01494000      14     -0.00425539      0.00256507     -0.00057285
Si              0.03668340     -2.84133188     -1.16267144      0.00167900     -0.25457600     -0.10110000      0.00853000      0.00988000      0.01731000      14      0.00023913     -0.00100845     -0.00176577
Si             -0.02398362      2.78253253     -6.52075981      0.00109700      0.25385300     -0.59173500     -0.03653000     -0.01091000     -0.01514000      14      0.00454416     -0.00208249     -0.00037230
Si             -0.01573971      2.86163174     -1.16290712      0.00032600      0.25629000     -0.10109600     -0.03738000      0.02021000      0.02021000      14      0.00006224      0.00056277     -0.00074322
Si             -2.71944542     -5.42628943     -6.58556285     -0.24855500     -0.49768900     -0.59497100     -0.01442000     -0.00569000      0.01028000      14      0.00086141      0.00261119     -0.00074292
Si             -2.69686635     -5.44438726     -1.05678465     -0.24936600     -0.49721400     -0.09605500     -0.00591000      0.01264000     -0.00352000      14      0.00191856     -0.00263150      0.00336311
Si             -2.76192577      0.04456407     -6.52078138     -0.25197300      0.00084500     -0.59174000      0.00109000      0.03167000     -0.01300000      14      0.00227290     -0.00441781     -0.00036190
Si             -2.84104567      0.03632984     -1.16292684     -0.25437200      0.00163400     -0.10109300     -0.02565000      0.02741000      0.01404000      14     -0.00045300     -0.00039029     -0.00054299
Si              2.80732784     -5.52661826     -6.58538293      0.25048400     -0.50044400     -0.59495100      0.00374000      0.01973000      0.00523000      14     -0.00087579     -0.00270403     -0.00129927
Si              2.78481045     -5.50860975     -1.05670752      0.25132000     -0.50091800     -0.09607200     -0.00928000      0.00116000      0.00312000      14     -0.00134316      0.00225782      0.00285359
Si              2.78279453     -0.02425291     -6.52070636      0.25395800      0.00099600     -0.59173800     -0.02499000     -0.01156000     -0.01688000      14     -0.00264640      0.00420435     -0.00067969
Si              2.86189348     -0.01608222     -1.16269109      0.25638400      0.00016100     -0.10112300     -0.00039000     -0.00407000      0.01326000      14      0.00117507     -0.00060856     -0.00154364
Si             -4.06953875     -4.06995786     -2.42307094     -0.37338600     -0.37339300     -0.22093500      0.01121000     -0.00817000     -0.00267000      14     -0.00157648     -0.00107593      0.00128640
Si             -4.05211989     -4.05268600      3.04090602     -0.37203600     -0.37204500      0.27997600      0.02491000      0.00645000     -0.00705000      14      0.00328932      0.00410759     -0.00517268
Si             -4.18250375      1.43534577     -2.50174162     -0.37778200      0.12763700     -0.22336400      0.00552000     -0.02408000      0.00461000      14      0.00024908     -0.00214402      0.00156621
Si             -4.15340191      1.40301805      3.12416829     -0.37567200      0.12585000      0.28081400      0.01418000     -0.00884000     -0.00247000      14     -0.00031763     -0.00289760     -0.00096127
Si              1.43575202     -4.18289504     -2.50151218      0.12754000     -0.37777500     -0.22332900      0.01427000     -0.01138000     -0.00210000      14     -0.00349144      0.00133206      0.00152974
Si              1.40358106     -4.15394919      3.12435399      0.12581200     -0.37559700      0.28079200      0.00749000     -0.00848000     -0.00176000      14     -0.00321857     -0.00116794     -0.00096470
Si              1.37217709      1.37179884     -2.42585194      0.12467700      0.12475900     -0.21937400      0.01166000     -0.02200000      0.01360000      14     -0.00139240     -0.00104111      0.00540862
Si              1.40961058      1.40911181      3.20397571      0.12964400      0.12965600      0.28803700      0.00185000     -0.02336000     -0.00156000      14     -0.00021152     -0.00044745     -0.00244941
Si             -6.81560029     -6.81606270     -2.42304170     -0.62471100     -0.62470600     -0.22093800      0.01204000     -0.00594000     -0.00127000      14      0.00076302      0.00155345      0.00090785
Si             -6.83289286     -6.83348803      3.04095439     -0.62610200     -0.62604800      0.27992000     -0.00722000     -0.02689000      0.00628000      14     -0.00390156     -0.00330399     -0.00579601
Si             -6.76969000     -1.34818331     -2.50166113     -0.62030900     -0.12575000     -0.22339700      0.00495000     -0.00516000      0.01108000      14     -0.00115188      0.00409993      0.00153058
Si             -6.79862530     -1.31598512      3.12424557     -0.62251400     -0.12398400      0.28079200      0.01208000     -0.00445000      0.00104000      14      0.00062783      0.00297489     -0.00156165
Si             -1.34777402     -6.77008200     -2.50157319     -0.12568200     -0.62033800     -0.22333300      0.01085000     -0.01066000      0.00354000      14      0.00279117     -0.00074874      0.00135796
Si             -1.31541159     -6.79921530      3.12431538     -0.12396300     -0.62255700      0.28080000      0.01634000      0.00065000      0.00144000      14      0.00280696      0.00033681     -0.00104510
Si             -1.35120091     -1.35157869     -2.42586285     -0.12280300     -0.12282200     -0.21931800      0.01919000     -0.00235000      0.01237000      14      0.00077389      0.00076251      0.00568108
Si             -1.38848663     -1.38906563      3.20397434     -0.12785400     -0.12772700      0.28804500      0.03077000     -0.00316000      0.00150000      14      0.00034230      0.00024675     -0.00241943
Si             -4.08327576     -6.80232359     -5.21102244     -0.37466500     -0.62340600     -0.47100600      0.00033000     -0.00338000      0.00420000      14     -0.00269383      0.00253942     -0.00020504
Si             -4.09155317     -6.79405651      0.31914120     -0.38037700     -0.61768700      0.02841500      0.00821000     -0.01349000     -0.01395000      14      0.00163092     -0.00124027     -0.00000649
Si             -4.09812791     -1.36227089     -5.17715006     -0.37534400     -0.12425800     -0.46718100      0.03128000     -0.01932000      0.00364000      14     -0.00013547      0.00040489     -0.00279387
Si             -4.09583646     -1.31055062      0.31965496     -0.37374400     -0.12243200      0.02992600      0.01324000     -0.00804000     -0.00430000      14      0.00105398     -0.00229367      0.00085379
Si              1.44988204     -6.85448474     -5.17698749      0.12616000     -0.62281300     -0.46721700      0.01905000     -0.02131000      0.00662000      14     -0.00056495      0.00043635     -0.00287738
Si              1.39812179     -6.85676492      0.31980234      0.12431400     -0.62432800      0.02994200      0.01120000     -0.01484000     -0.00444000      14      0.00253590     -0.00108731      0.00094313
Si              1.39424912     -1.37366118     -5.15268827      0.12638800     -0.12444500     -0.46881500      0.00623000     -0.00728000      0.02074000      14     -0.00495110      0.00477979      0.00141683
Si              1.67506916     -1.65450469      0.06327396      0.15586000     -0.15397600      0.01211100     -0.00286000     -0.00075000     -0.01296000      14      0.00091550     -0.00067909      0.00049377
Si             -6.80186287     -4.08368795     -5.21103661     -0.62343400     -0.37465900     -0.47101400      0.02320000     -0.02504000      0.00749000      14      0.00098417     -0.00125409      0.00003786
Si             -6.79349775     -4.09213175      0.31902195     -0.61773100     -0.38036000      0.02847700      0.00287000     -0.00665000     -0.02088000      14     -0.00199025      0.00262030      0.00018403
Si             -6.85405442      1.44942529     -5.17730965     -0.62279900      0.12614700     -0.46717800     -0.00151000     -0.00712000      0.00717000      14     -0.00095461      0.00175739     -0.00218925
Si             -6.85625619      1.39762230      0.31963886     -0.62438000      0.12431500      0.02995500      0.01023000     -0.01624000     -0.00356000      14     -0.00194943      0.00425551      0.00068161
Si             -1.36186511     -4.09856223     -5.17713654     -0.12426000     -0.37529500     -0.46716000      0.01138000     -0.00133000      0.00209000      14     -0.00140156      0.00094643     -0.00243137
Si             -1.31000945     -4.09633892      0.31978898     -0.12243800     -0.37376800      0.02990300      0.01347000     -0.00844000      0.00670000      14     -0.00445034      0.00200682      0.00044867
Si             -1.37326728      1.39386845     -5.15273015     -0.12445900      0.12632800     -0.46877800      0.01434000     -0.01022000      0.01830000      14      0.00381223     -0.00400864      0.00074130
Si             -1.65408248      1.67465221      0.06301409     -0.15393800      0.15579200      0.01217900      0.00636000      0.00412000     -0.01243000      14     -0.00066555      0.00079616      0.00021336
Si              0.01048397      0.01009454      0.28021386      0.00090600      0.00090900      0.00331200      0.00396000     -0.00375000     -0.01019000      14      0.00008664     -0.00007101     -0.00133168
Si              0.92255292     -0.90195485      2.39445200      0.07757700     -0.07570800      0.20167500     -0.01246000      0.01185000     -0.01892000      14      0.00103799     -0.00108844     -0.00356117
