30
Lattice="4.4991303946099155 0.0 0.0 2.249565197304958 3.896361216670893 0.0 0.0 0.0 37.55143438260255" Properties=species:S:1:pos:R:3:Z:I:1 energy=-326.606320547 pbc="T T T"
W       0.05689402       0.00659642       2.08881107       74 
W       2.34253102       1.36675628       3.89118987       74 
W       4.51791533       2.65940049       2.95579392       74 
W       0.09335822       0.06481412       4.82232256       74 
W       2.34272255       1.36578588       6.61511818       74 
W       4.52471383       2.62007333       5.68159465       74 
W       0.01840002       0.07249494       7.61017994       74 
W       2.26388221       1.32085922       9.37489446       74 
W       4.57383617       2.69562234       8.50646753       74 
W       0.06951428       0.09484549      10.27321514       74 
W       2.27057172       1.36533496      12.18213014       74 
W       4.56296458       2.60090404      11.21233075       74 
W       0.00851882       0.08752703      13.11604587       74 
W       2.32240646       1.30131372      14.93289711       74 
W       4.58831105       2.62409516      14.03209159       74 
W       0.04075717       0.04151688      15.79550928       74 
W       2.34813120       1.33011653      17.63038208       74 
W       4.50027989       2.67773874      16.74448625       74 
W       0.04681286       0.07794490      18.55921020       74 
W       2.26040164       1.38696207      20.46169489       74 
W       4.55931000       2.66200788      19.49918571       74 
W       0.07320430       0.09590194      21.33913355       74 
W       2.32993652       1.34751533      23.19896780       74 
W       4.55864807       2.64485084      22.25307549       74 
W       0.04748054       0.04260348      24.12012985       74 
W       2.26127128       1.31214251      25.91196041       74 
W       4.51201932       2.66785156      25.01812200       74 
W       0.02901462       0.05350909      26.87715326       74 
W       2.30766791       1.30745284       1.12563873       74 
W       4.51829327       2.67024439       0.25975722       74 
30
Lattice="4.4991303946099155 0.0 0.0 2.249565197304958 3.896361216670893 0.0 0.0 0.0 37.55143438260255" Properties=species:S:1:pos:R:3:Z:I:1:forces:R:3 pbc="T T T"
W       0.05670921       0.01243843       2.07499157       74      -0.02585953       0.34513259      -0.88629270 
W       2.33207340       1.36014227       3.88438773       74      -0.48661484      -0.30905860      -0.36684349 
W       4.52952259       2.65491924       2.94874711       74       0.57138872      -0.24662234      -0.41325867 
W       0.08506810       0.06207540       4.81689105       74      -0.42587793      -0.14125984      -0.34469820 
W       2.33268154       1.36505234       6.62257492       74      -0.50743962      -0.06031769       0.34969549 
W       4.53749299       2.63106368       5.69453189       74       0.57158363       0.52163640       0.59135603 
W       0.02773191       0.06892135       7.59441242       74       0.49294761      -0.15862398      -0.74931619 
W       2.27458852       1.33337492       9.38129195       74       0.50174162       0.57870421       0.32249382 
W       4.56611650       2.68587467       8.49537500       74      -0.35929469      -0.49200653      -0.48414121 
W       0.06290294       0.08250691      10.28835866       74      -0.32848259      -0.57030679       0.69021773 
W       2.27834677       1.36172613      12.17592163       74       0.37609584      -0.21137858      -0.32545442 
W       4.55592067       2.61621585      11.22006368       74      -0.31537304       0.75299012       0.38486825 
W       0.02020757       0.07415499      13.10425974       74       0.56862683      -0.63091045      -0.56351899 
W       2.31400035       1.31426553      14.92832276       74      -0.36936657       0.60693010      -0.24425048 
W       4.57588284       2.62906816      14.02325351       74      -0.60669393       0.25223733      -0.48387066 
W       0.04564229       0.04019806      15.80594443       74       0.18740645      -0.00168089       0.50154294 
W       2.33343690       1.33833201      17.63991377       74      -0.71212127       0.39342267       0.48824469 
W       4.51548214       2.66759255      16.74518825       74       0.74354829      -0.47104156       0.04271526 
W       0.04741039       0.07466045      18.56502765       74       0.04445340      -0.18023146       0.32340785 
W       2.27291958       1.38325162      20.45039273       74       0.61325737      -0.21133651      -0.53484442 
W       4.55718724       2.66467594      19.49907491       74      -0.10993928       0.10605041       0.03608864 
W       0.06785832       0.08822899      21.34106658       74      -0.26576302      -0.38090084       0.11067218 
W       2.32224790       1.34980871      23.19955694       74      -0.41641051       0.11815658       0.09068834 
W       4.55751822       2.65038290      22.25938756       74      -0.06735098       0.25197126       0.34162252 
W       0.04696947       0.04403479      24.12429345       74      -0.04224560       0.09836840       0.31381030 
W       2.26410877       1.31896892      25.92147679       74       0.18170045       0.39318280       0.50451635 
W       4.51690077       2.66195331      25.02726661       74       0.27238864      -0.30995506       0.60687737 
W       0.02808448       0.05095799      26.84795826       74      -0.05338176      -0.15037313      -1.95618531 
W       2.30438996       1.31431867       1.12564030       74      -0.18466923       0.39323097       0.03272312 
W       4.52036652       2.66561759       0.28391767       74       0.15174556      -0.28600960       1.62113383 
30
Lattice="4.4991303946099155 0.0 0.0 2.249565197304958 3.896361216670893 0.0 0.0 0.0 37.55143438260255" Properties=species:S:1:pos:R:3:Z:I:1:forces:R:3 pbc="T T T"
W       0.05514137       0.03418028       2.01944520       74      -0.05306880       0.10318465      -0.43458331 
W       2.30088142       1.34033837       3.86113479       74       0.18579892       0.11279753      -0.12685171 
W       4.56598592       2.63930890       2.92270113       74      -0.22916942       0.01910044       0.36448745 
W       0.05797799       0.05309253       4.79527413       74       0.06292934       0.00130669      -0.21848024 
W       2.30036379       1.36132215       6.64497624       74       0.16024615      -0.04907893      -0.21216651 
W       4.57425138       2.66444733       5.73249312       74      -0.32683288      -0.19730530      -0.28820082 
W       0.05902449       0.05871372       7.54646253       74      -0.06684994       0.08398601       0.23968559 
W       2.30673164       1.37048895       9.40183478       74      -0.19201400      -0.25488529      -0.08038000 
W       4.54308616       2.65453691       8.46417508       74       0.15698870       0.07280081       0.30764522 
W       0.04195561       0.04593034      10.33267668       74       0.08973851       0.26081197      -0.32881259 
W       2.30238009       1.34840274      12.15525014       74      -0.15299200      -0.00531395       0.06021322 
W       4.53564082       2.66427186      11.24460351       74       0.24124797      -0.27849997      -0.15389593 
W       0.05652794       0.03375882      13.06821665       74      -0.22951137       0.32135567       0.18449269 
W       2.29021068       1.35314759      14.91282959       74       0.19952908      -0.22059901      -0.01848962 
W       4.53714140       2.64512822      13.99261505       74       0.22196882      -0.05832973       0.03112623 
W       0.05786257       0.03977992      15.83801023       74      -0.18350827       0.17847236      -0.13349961 
W       2.28793748       1.36349245      17.67097770       74       0.28814238      -0.17418556      -0.04602983 
W       4.56295552       2.63739319      16.74787403       74      -0.28433000       0.25601783       0.03705963 
W       0.05017327       0.06325011      18.58548396       74       0.03809707       0.00038694       0.05216288 
W       2.31206932       1.36990612      20.41615568       74      -0.18221360      -0.05056164       0.29312503 
W       4.55019819       2.67156789      19.50117370       74       0.01786803      -0.13589009       0.15746218 
W       0.05091135       0.06393736      21.34805289       74       0.05422366       0.07696230       0.02826077 
W       2.29586097       1.35732304      23.20504101       74       0.00212093      -0.01830405       0.25082858 
W       4.55327787       2.66656257      22.28103640       74      -0.05542978      -0.12412289       0.09142292 
W       0.04435754       0.05017501      24.14378427       74      -0.05082509       0.06251570       0.08683422 
W       2.27549748       1.34377911      25.95349541       74       0.08813765      -0.00355879      -0.14586837 
W       4.53412558       2.64226980      25.06522429       74       0.01724919       0.06132230       0.34710542 
W       0.02471524       0.04148375      26.72567501       74       0.02119892       0.02130227      -1.09750003 
W       2.29271981       1.33914123       1.12756806       74       0.03994722       0.02701309       0.17381557 
W       4.52980597       2.64765214       0.38524824       74       0.12131262      -0.08870137       0.57903095 
30
Lattice="4.4991303946099155 0.0 0.0 2.249565197304958 3.896361216670893 0.0 0.0 0.0 37.55143438260255" Properties=species:S:1:pos:R:3:Z:I:1:forces:R:3 pbc="T T T"
W       0.05442379       0.03585592       2.01296113       74      -0.04762701       0.08810685      -0.36794141 
W       2.30279168       1.34148344       3.85903115       74       0.13282283       0.09390649      -0.12455574 
W       4.56349446       2.63935393       2.92744909       74      -0.18113771       0.02945414       0.34417972 
W       0.05839188       0.05296030       4.79205894       74       0.04482815      -0.00322709      -0.18172812 
W       2.30201498       1.36064021       6.64250550       74       0.12002114      -0.04148277      -0.18093204 
W       4.57057380       2.66239405       5.72933966       74      -0.25258647      -0.16106848      -0.21910458 
W       0.05859074       0.05963739       7.54880886       74      -0.06187956       0.05130886       0.17241643 
W       2.30474501       1.36775845       9.40108505       74      -0.14177580      -0.20187331      -0.07267125 
W       4.54477123       2.65499214       8.46767864       74       0.12487479       0.06165691       0.22407837 
W       0.04281468       0.04875393      10.32910711       74       0.08086424       0.19160588      -0.25439043 
W       2.30072968       1.34817402      12.15575250       74      -0.11260524       0.00718561       0.03732227 
W       4.53851494       2.66131643      11.24291961       74       0.17426660      -0.21457962      -0.12079031 
W       0.05404809       0.03737695      13.07005016       74      -0.16824370       0.24121613       0.13505860 
W       2.29240429       1.35090629      14.91233649       74       0.14727041      -0.15453236      -0.00352982 
W       4.53947603       2.64460032      13.99260889       74       0.16855670      -0.03494959       0.02985711 
W       0.05569825       0.04206720      15.83679594       74      -0.13517052       0.13659028      -0.10651930 
W       2.29104503       1.36158176      17.67086895       74       0.21856842      -0.12857675      -0.02975647 
W       4.55991976       2.64029425      16.74841493       74      -0.21814783       0.20024338       0.03503585 
W       0.05071067       0.06309363      18.58648622       74       0.02852246      -0.00595812       0.04994848 
W       2.31028712       1.36903592      20.41951453       74      -0.15078483      -0.04723818       0.26034885 
W       4.55032999       2.66988539      19.50327801       74       0.01938528      -0.11651958       0.13956211 
W       0.05135217       0.06455716      21.34853186       74       0.03502490       0.05058970       0.03413115 
W       2.29550212       1.35719555      23.20844581       74       0.00379185      -0.01463944       0.23151666 
W       4.55246334       2.66520338      22.28262219       74      -0.05032222      -0.10044293       0.10344280 
W       0.04365238       0.05107790      24.14504712       74      -0.03885608       0.04778861      -0.02916581 
W       2.27681415       1.34403452      25.95197349       74       0.07329164      -0.00199979      -0.16873343 
W       4.53459740       2.64280541      25.07030498       74       0.01095632       0.05797194       0.29391979 
W       0.02496711       0.04167087      26.70963402       74       0.02887744       0.02374387      -0.89354305 
W       2.29311992       1.33982575       1.12992073       74       0.03658565       0.01872630       0.17973429 
W       4.53152419       2.64624992       0.39395797       74       0.11062816      -0.07300695       0.48280924 
30
Lattice="4.4991303946099155 0.0 0.0 2.249565197304958 3.896361216670893 0.0 0.0 0.0 37.55143438260255" Properties=species:S:1:pos:R:3:Z:I:1:forces:R:3 pbc="T T T"
W       0.05262596       0.04013428       1.99695595       74      -0.03035075       0.04520807      -0.20524620 
W       2.30586631       1.34379003       3.85314173       74       0.03521847       0.05750127      -0.10246171 
W       4.55873446       2.63969733       2.93936941       74      -0.09425695       0.05007080       0.30740053 
W       0.05862172       0.05235359       4.78434245       74       0.01343409      -0.00590633      -0.09731606 
W       2.30477844       1.35899084       6.63705018       74       0.04859851      -0.02709252      -0.12434839 
W       4.56345126       2.65834412       5.72348712       74      -0.11479347      -0.09319063      -0.09255154 
W       0.05788079       0.06090777       7.55241856       74      -0.05512997      -0.00672235       0.05094588 
W       2.30137292       1.36247615       9.39949007       74      -0.04982056      -0.10280154      -0.06225540 
W       4.54804858       2.65556643       8.47403297       74       0.06511774       0.04012310       0.06823703 
W       0.04466931       0.05369921      10.32234763       74       0.06142537       0.06571064      -0.12040725 
W       2.29788019       1.34785433      12.15609424       74      -0.03879606       0.02990726       0.00151735 
W       4.54379657       2.65596087      11.23973169       74       0.05684989      -0.10029238      -0.06360425 
W       0.04979456       0.04404643      13.07299035       74      -0.06120620       0.09976446       0.05032495 
W       2.29636111       1.34746375      14.91139080       74       0.05037298      -0.03637239       0.02535631 
W       4.54360034       2.64415228      13.99223494       74       0.07435429       0.00544384       0.03327245 
W       0.05157515       0.04686968      15.83469849       74      -0.04418112       0.05669607      -0.05386104 
W       2.29664412       1.35821521      17.67143791       74       0.09432457      -0.04903252       0.00076163 
W       4.55441719       2.64598035      16.74985116       74      -0.09953664       0.09567728       0.03218389 
W       0.05187107       0.06231689      18.58935653       74       0.00752100      -0.01404095       0.04096084 
W       2.30687052       1.36663455      20.42725427       74      -0.09349040      -0.03655224       0.19877527 
W       4.55068363       2.66601573      19.50844788       74       0.01846793      -0.07530628       0.10187330 
W       0.05171652       0.06508943      21.35013329       74       0.00273338       0.00481142       0.03383439 
W       2.29432222       1.35704784      23.21717284       74       0.01126504      -0.01010170       0.18183267 
W       4.55037559       2.66245414      22.28760905       74      -0.03788637      -0.05742646       0.10663815 
W       0.04211975       0.05309303      24.14455162       74      -0.01211649       0.01803577      -0.36148326 
W       2.28001707       1.34506784      25.94727815       74       0.03734728      -0.00461846      -0.22301224 
W       4.53583663       2.64396381      25.08276054       74      -0.00504192       0.05334307       0.15601200 
W       0.02589957       0.04216079      26.67157681       74       0.04572899       0.03091907      -0.30697750 
W       2.29396376       1.34166664       1.13662904       74       0.03465729      -0.00468045       0.18468817 
W       4.53597356       2.64276903       0.41565385       74       0.07919007      -0.02907491       0.23891003 
30
Lattice="4.4991303946099155 0.0 0.0 2.249565197304958 3.896361216670893 0.0 0.0 0.0 37.55143438260255" Properties=species:S:1:pos:R:3:Z:I:1:forces:R:3 pbc="T T T"
W       0.05056047       0.04421624       1.98056303       74      -0.00370878       0.00355536      -0.04300360 
W       2.30914006       1.34705859       3.84633923       74      -0.07533760       0.00483419      -0.05768770 
W       4.55259547       2.64139819       2.95641958       74       0.01742468       0.05270796       0.15133618 
W       0.05931173       0.05181884       4.77641682       74      -0.03512852      -0.00656947      -0.00826201 
W       2.30825958       1.35713442       6.62970783       74      -0.04301786      -0.01677519      -0.04666294 
W       4.55515074       2.65279998       5.71667035       74       0.04201606      -0.00000792       0.05265907 
W       0.05568805       0.06167582       7.55658640       74      -0.02178561      -0.06123253      -0.09271414 
W       2.29748552       1.35579456       9.39656119       74       0.05764162       0.02181008      -0.03795116 
W       4.55223407       2.65722264       8.48050451       74      -0.01181689      -0.00953609      -0.10380568 
W       0.04775061       0.05915358      10.31411534       74       0.02032151      -0.07425344       0.03504059 
W       2.29467361       1.34853820      12.15652624       74       0.04662215       0.03553219      -0.03754280 
W       4.54919399       2.64917089      11.23559658       74      -0.05937286       0.04503481       0.00822183 
W       0.04490705       0.05169677      13.07661848       74       0.06026507      -0.05819364      -0.04841825 
W       2.30061250       1.34385396      14.91148771       74      -0.05451615       0.09320789       0.04001613 
W       4.54875573       2.64387603      13.99308738       74      -0.03924975       0.04983383       0.01830988 
W       0.04744090       0.05175250      15.83161175       74       0.05015720      -0.02124257       0.02335466 
W       2.30342280       1.35435868      17.67168559       74      -0.05548712       0.03982073       0.05166376 
W       4.54755044       2.65274625      16.75172164       74       0.04603765      -0.02854387       0.02745691 
W       0.05286983       0.06147273      18.59235706       74      -0.01456675      -0.02437220       0.03800166 
W       2.30171983       1.36404164      20.43827873       74      -0.00581293      -0.02977055       0.09856928 
W       4.55146963       2.66122380      19.51481756       74       0.00588769      -0.02089460       0.05738568 
W       0.05214577       0.06573282      21.35211912       74      -0.03613500      -0.05155390       0.03107741 
W       2.29396472       1.35662375      23.22818398       74       0.00169931      -0.00292424       0.08647504 
W       4.54789939       2.65888798      22.29387572       74      -0.02040027      -0.00299487       0.07979972 
W       0.04073317       0.05495373      24.13417616       74       0.01255475      -0.00946569      -0.55506146 
W       2.28319530       1.34546956      25.93771845       74       0.00246812       0.01287444      -0.23260715 
W       4.53645759       2.64635251      25.09544066       74      -0.00559232       0.02819350       0.02320376 
W       0.02782252       0.04342870      26.63754369       74       0.05383111       0.02886835       0.19172213 
W       2.29559810       1.34265275       1.14632702       74       0.02313579      -0.00984838       0.16659256 
W       4.54115969       2.63967629       0.43643171       74       0.04186571       0.01190583       0.08283067 
30
Lattice="4.4991303946099155 0.0 0.0 2.249565197304958 3.896361216670893 0.0 0.0 0.0 37.55143438260255" Properties=species:S:1:pos:R:3:Z:I:1:forces:R:3 pbc="T T T"
W       0.05008784       0.04528372       1.97610008       74       0.00395740      -0.00639023       0.00173102 
W       2.30851940       1.34763254       3.84399422       74      -0.07555863      -0.00101881      -0.02954614 
W       4.55187777       2.64233202       2.96164794       74       0.02382531       0.04532871       0.11078069 
W       0.05872299       0.05155745       4.77448825       74      -0.03621322      -0.00225574       0.01274779 
W       2.30810048       1.35646728       6.62772245       74      -0.04712695      -0.01579417      -0.03216170 
W       4.55429905       2.65193636       5.71628785       74       0.04830432       0.00959983       0.05892341 
W       0.05522087       0.06091810       7.55576835       74      -0.01439007      -0.05816003      -0.09727386 
W       2.29774246       1.35502117       9.39559657       74       0.05825562       0.02922575      -0.03655500 
W       4.55274314       2.65713906       8.48015629       74      -0.01947151      -0.01885244      -0.11053707 
W       0.04847370       0.05896637      10.31323640       74       0.01286881      -0.07511066       0.04020556 
W       2.29485714       1.34903228      12.15593041       74       0.04829227       0.02984673      -0.03300190 
W       4.54935927       2.64880025      11.23505742       74      -0.05618600       0.05192545       0.01028051 
W       0.04502096       0.05216236      13.07641535       74       0.06047804      -0.05796549      -0.04810198 
W       2.30055816       1.34470352      14.91191953       74      -0.05389392       0.09067293       0.03711709 
W       4.54896144       2.64464395      13.99324584       74      -0.04221394       0.04772947       0.01591023 
W       0.04736138       0.05249500      15.83158243       74       0.05112738      -0.02321509       0.03312568 
W       2.30367910       1.35430792      17.67274183       74      -0.06111105       0.03968374       0.05602643 
W       4.54716427       2.65350196      16.75251771       74       0.05337523      -0.03685559       0.02853332 
W       0.05289371       0.06086311      18.59368810       74      -0.01704916      -0.02144002       0.03276808 
W       2.30091390       1.36297122      20.44163570       74       0.00278328      -0.02614346       0.07490630 
W       4.55163368       2.66000647      19.51696280       74      -0.00176300      -0.01166634       0.04717018 
W       0.05159261       0.06494481      21.35300646       74      -0.03504929      -0.05141269       0.02460761 
W       2.29367471       1.35655458      23.23165011       74       0.00063957      -0.00426172       0.03027435 
W       4.54707458       2.65823646      22.29639061       74      -0.01460494       0.00049352       0.04575279 
W       0.04059640       0.05526682      24.12451466       74       0.01322415      -0.01252100      -0.38528801 
W       2.28398440       1.34597301      25.93278675       74      -0.00102629       0.01367757      -0.21365438 
W       4.53667388       2.64705338      25.09870907       74      -0.00397118       0.02288012      -0.00317274 
W       0.02893698       0.04400315      26.63214855       74       0.05052510       0.02948234       0.14029303 
W       2.29615439       1.34295157       1.15065924       74       0.02207353      -0.00963025       0.14537852 
W       4.54289022       2.63905651       0.44292856       74       0.02989914       0.02214758       0.04276019 
30
Lattice="4.4991303946099155 0.0 0.0 2.249565197304958 3.896361216670893 0.0 0.0 0.0 37.55143438260255" Properties=species:S:1:pos:R:3:Z:I:1:forces:R:3 pbc="T T T"
W       0.04938590       0.04750245       1.96702580       74       0.01894162      -0.02534903       0.09628697 
W       2.30491386       1.34822368       3.83882253       74      -0.03033326       0.00206113       0.04788600 
W       4.55187963       2.64473352       2.97309434       74      -0.00066236       0.01903468       0.04722622 
W       0.05611410       0.05090827       4.77094069       74      -0.01754377       0.01132333       0.05037020 
W       2.30593213       1.35469042       6.62378420       74      -0.02143582      -0.01066076      -0.01254036 
W       4.55455619       2.65132503       5.71776249       74       0.00742006       0.00130552       0.02176558 
W       0.05479474       0.05794468       7.55082277       74      -0.00930565      -0.02816876      -0.05093141 
W       2.30024987       1.35505243       9.39327063       74       0.01704952       0.00252153      -0.04029773 
W       4.55267658       2.65565403       8.47615956       74      -0.01176962      -0.02316061      -0.06217266 
W       0.04960258       0.05612917      10.31337469       74       0.00764686      -0.02347392      -0.00459172 
W       2.29686002       1.35027165      12.15366134       74       0.01946669       0.01375883      -0.00411583 
W       4.54810590       2.65039142      11.23475652       74      -0.00475568       0.01477903      -0.01167914 
W       0.04736815       0.05098224      13.07419781       74       0.01506220       0.00163887      -0.00876447 
W       2.29877322       1.34919653      14.91323777       74      -0.01177031       0.03175715       0.02675696 
W       4.54755468       2.64756136      13.99321902       74      -0.00546049       0.02309194       0.01821688 
W       0.04861146       0.05344360      15.83317657       74       0.01932671      -0.00421544       0.03218304 
W       2.30174077       1.35560955      17.67691284       74      -0.02030498       0.00496406       0.04463366 
W       4.54875071       2.65337575      16.75486128       74       0.01684555      -0.01468550       0.03265093 
W       0.05255101       0.05897577      18.59742907       74      -0.01732713      -0.00699006       0.01640666 
W       2.30036648       1.36001851      20.44884628       74      -0.00961654      -0.01469507       0.02068531 
W       4.55158144       2.65764731      19.52218006       74      -0.01854303      -0.00349013       0.02750641 
W       0.04935824       0.06168796      21.35533438       74      -0.01466240      -0.02620416      -0.00623744 
W       2.29251764       1.35643844      23.23807777       74       0.00589234      -0.01155829      -0.09665144 
W       4.54513196       2.65733742      22.30209410       74      -0.00111497      -0.00953774      -0.04029765 
W       0.04058191       0.05567749      24.10065244       74       0.00941135      -0.01244224       0.05573706 
W       2.28571151       1.34786390      25.91908713       74      -0.00148066       0.00585483      -0.14241174 
W       4.53743014       2.64844095      25.10539889       74      -0.00285079       0.01770046      -0.05817903 
W       0.03218666       0.04564143      26.62073254       74       0.03648040       0.03243991      -0.02402666 
W       2.29750545       1.34387517       1.16224733       74       0.02287756      -0.01026474       0.07708659 
W       4.54697593       2.63818226       0.45832867       74       0.00251658       0.04266519      -0.05250118 
30
Lattice="4.4991303946099155 0.0 0.0 2.249565197304958 3.896361216670893 0.0 0.0 0.0 37.55143438260255" Properties=species:S:1:pos:R:3:Z:I:1:forces:R:3 pbc="T T T"
W       0.04966850       0.04710297       1.96833333       74       0.01606275      -0.01622257       0.08853086 
W       2.30411089       1.34832953       3.83931710       74      -0.01757190       0.00235875       0.05661493 
W       4.55187329       2.64533387       2.97468893       74      -0.00360424       0.00891209       0.01166763 
W       0.05568900       0.05107377       4.77169786       74      -0.01504433       0.00977769       0.04443678 
W       2.30542733       1.35441708       6.62326739       74      -0.01568099      -0.01048814      -0.00644889 
W       4.55477602       2.65126648       5.71827668       74      -0.00453389      -0.00040615       0.01102830 
W       0.05448961       0.05720661       7.54962808       74      -0.00530908      -0.01947748      -0.03482615 
W       2.30074338       1.35510725       9.39237889       74       0.00749435      -0.00475297      -0.03395920 
W       4.55248475       2.65527488       8.47471951       74      -0.00838860      -0.02299698      -0.04195680 
W       0.04986919       0.05546807      10.31335121       74       0.00522341      -0.01099527      -0.01433995 
W       2.29735779       1.35068276      12.15343874       74       0.01230556       0.00810156      -0.00114532 
W       4.54780397       2.65075410      11.23455121       74       0.00689138       0.00744021      -0.01430292 
W       0.04783097       0.05082729      13.07389357       74       0.00687333       0.01307401      -0.00097748 
W       2.29837742       1.35009341      14.91388939       74      -0.00086249       0.01803315       0.02128296 
W       4.54735463       2.64816238      13.99364447       74       0.00163220       0.01768326       0.01380518 
W       0.04912387       0.05331294      15.83375369       74       0.00868895       0.00349143       0.02987105 
W       2.30123776       1.35582745      17.67786269       74      -0.01135218      -0.00193078       0.03882238 
W       4.54915022       2.65307835      16.75553693       74       0.00769524      -0.00693781       0.03073579 
W       0.05219897       0.05874923      18.59787816       74      -0.01468160      -0.00580972       0.01756338 
W       2.30010130       1.35963058      20.44980144       74      -0.01013281      -0.01395005       0.00483944 
W       4.55131758       2.65744949      19.52295555       74      -0.01995664      -0.00491234       0.02194645 
W       0.04896581       0.06104152      21.35539416       74      -0.01097001      -0.02020693      -0.00887238 
W       2.29264786       1.35622263      23.23698281       74       0.00269781      -0.01097622      -0.09541699 