2
Lattice="3.298552899976977 0.0 0.0 0.0 3.298552899976977 0.0 0.0 0.0 3.298552899976977" Properties=species:S:1:pos:R:3:Z:I:1:forces:R:3 stress="4.20842277274623e-05 0.0 -9.44044153060329e-35 0.0 4.2084227727462334e-05 0.0 -9.44044153060329e-35 0.0 4.208422772746234e-05" energy=-11.7609395788 Minim_Constant_Volume=T Minim_Hydrostatic_Strain=F pbc="T T T"
Ti       0.00000000      -0.00000000      -0.00000000       22      -0.00000000       0.00000000      -0.00000000 
Ti       1.64927645       1.64927645       1.64927645       22       0.00000000       0.00000000       0.00000000 
2
Lattice="3.270832657479605 0.0 0.0 0.0 3.270832657479605 0.0 0.0 0.0 3.270832657479605" Properties=species:S:1:pos:R:3:Z:I:1:forces:R:3 stress="-0.015517236594532264 0.0 0.0 0.0 -0.015517236594532262 0.0 0.0 0.0 -0.015517236594532262" energy=-11.7547833261 Minim_Constant_Volume=T Minim_Hydrostatic_Strain=F pbc="T T T"
Ti       0.00000000      -0.00000000      -0.00000000       22       0.00000000       0.00000000       0.00000000 
Ti       1.63541633       1.63541633       1.63541633       22       0.00000000       0.00000000       0.00000000 
2
Lattice="3.2426344210573577 0.0 0.0 0.0 3.2426344210573577 0.0 0.0 0.0 3.2426344210573577" Properties=species:S:1:pos:R:3:Z:I:1:forces:R:3 stress="-0.008994862638454303 7.815076319922575e-34 -6.349749509937092e-34 7.815076319922575e-34 -0.008994862638454311 0.0 -6.349749509937092e-34 0.0 -0.008994862638454311" energy=-11.7439718685 Minim_Constant_Volume=T Minim_Hydrostatic_Strain=F pbc="T T T"
Ti       0.00000000      -0.00000000      -0.00000000       22       0.00000000       0.00000000       0.00000000 
Ti       1.62131721       1.62131721       1.62131721       22       0.00000000       0.00000000       0.00000000 
2
Lattice="3.2139370362124637 0.0 0.0 0.0 3.2139370362124637 0.0 0.0 0.0 3.2139370362124637" Properties=species:S:1:pos:R:3:Z:I:1:forces:R:3 stress="-0.005218638658566374 4.972038573645015e-35 9.94407714729003e-35 4.972038573645015e-35 -0.005218638658566378 0.0 9.94407714729003e-35 0.0 -0.00521863865856638" energy=-11.7378192464 Minim_Constant_Volume=T Minim_Hydrostatic_Strain=F pbc="T T T"
Ti       0.00000000      -0.00000000      -0.00000000       22       0.00000000       0.00000000       0.00000000 
Ti       1.60696852       1.60696852       1.60696852       22       0.00000000       0.00000000       0.00000000 
2
Lattice="3.1847178094878865 0.0 0.0 0.0 3.1847178094878865 0.0 0.0 0.0 3.1847178094878865" Properties=species:S:1:pos:R:3:Z:I:1:forces:R:3 stress="-0.004623897572131363 0.0 1.772292294069811e-33 0.0 -0.004623897572131365 0.0 1.772292294069811e-33 0.0 -0.004623897572131366" energy=-11.7336539227 Minim_Constant_Volume=T Minim_Hydrostatic_Strain=F pbc="T T T"
Ti       0.00000000      -0.00000000      -0.00000000       22       0.00000000       0.00000000      -0.00000000 
Ti       1.59235890       1.59235890       1.59235890       22      -0.00000000       0.00000000      -0.00000000 
2
Lattice="3.1549523501951264 0.0 0.0 0.0 3.1549523501951264 0.0 0.0 0.0 3.1549523501951264" Properties=species:S:1:pos:R:3:Z:I:1:forces:R:3 stress="0.006771351990822931 -4.127751996121265e-34 -2.9023256222727644e-34 -4.127751996121265e-34 0.006771351990822934 0.0 -2.9023256222727644e-34 0.0 0.006771351990822934" energy=-11.7348821477 Minim_Constant_Volume=T Minim_Hydrostatic_Strain=F pbc="T T T"
Ti       0.00000000      -0.00000000      -0.00000000       22       0.00000000       0.00000000       0.00000000 
Ti       1.57747618       1.57747618       1.57747618       22       0.00000000       0.00000000       0.00000000 
2
Lattice="3.3258149040401546 0.0 0.0 0.0 3.3258149040401546 0.0 0.0 0.0 3.3258149040401546" Properties=species:S:1:pos:R:3:Z:I:1:forces:R:3 stress="0.0056805655502396805 1.8572615115729718e-34 -1.8572615115729718e-34 1.8572615115729718e-34 0.005680565550239677 0.0 -1.8572615115729718e-34 0.0 0.005680565550239674" energy=-11.7579292231 Minim_Constant_Volume=T Minim_Hydrostatic_Strain=F pbc="T T T"
Ti       0.00000000      -0.00000000      -0.00000000       22       0.00000000       0.00000000       0.00000000 
Ti       1.66290745       1.66290745       1.66290745       22       0.00000000       0.00000000       0.00000000 
2
Lattice="3.352637150297669 0.0 0.0 0.0 3.352637150297669 0.0 0.0 0.0 3.352637150297669" Properties=species:S:1:pos:R:3:Z:I:1:forces:R:3 stress="0.008715723194066617 -1.0234912403657411e-32 -2.9242606867592603e-33 -1.0234912403657411e-32 0.008715723194066606 0.0 -2.9242606867592603e-33 0.0 0.008715723194066606" energy=-11.7514641327 Minim_Constant_Volume=T Minim_Hydrostatic_Strain=F pbc="T T T"
Ti       0.00000000      -0.00000000      -0.00000000       22      -0.00000000       0.00000000      -0.00000000 
Ti       1.67631858       1.67631858       1.67631858       22      -0.00000000       0.00000000      -0.00000000 
2
Lattice="3.37903695497047 0.0 0.0 0.0 3.37903695497047 0.0 0.0 0.0 3.37903695497047" Properties=species:S:1:pos:R:3:Z:I:1:forces:R:3 stress="0.011868389770851702 2.1590593081431348e-33 2.5189025261669907e-33 2.1590593081431348e-33 0.011868389770851693 0.0 2.5189025261669907e-33 0.0 0.011868389770851693" energy=-11.7421951746 Minim_Constant_Volume=T Minim_Hydrostatic_Strain=F pbc="T T T"
Ti       0.00000000      -0.00000000      -0.00000000       22      -0.00000000       0.00000000       0.00000000 
Ti       1.68951848       1.68951848       1.68951848       22      -0.00000000      -0.00000000      -0.00000000 
2
Lattice="3.4050305684271684 0.0 0.0 0.0 3.4050305684271684 0.0 0.0 0.0 3.4050305684271684" Properties=species:S:1:pos:R:3:Z:I:1:forces:R:3 stress="0.01232872057040135 0.0 4.4296273059864753e-35 0.0 0.01232872057040135 0.0 4.4296273059864753e-35 0.0 0.01232872057040135" energy=-11.7309439485 Minim_Constant_Volume=T Minim_Hydrostatic_Strain=F pbc="T T T"
Ti       0.00000000      -0.00000000      -0.00000000       22      -0.00000000       0.00000000       0.00000000 
Ti       1.70251528       1.70251528       1.70251528       22      -0.00000000       0.00000000       0.00000000 
2
Lattice="3.4306332633615275 0.0 0.0 0.0 3.4306332633615275 0.0 0.0 0.0 3.4306332633615275" Properties=species:S:1:pos:R:3:Z:I:1:forces:R:3 stress="0.004614506889233914 0.0 7.949985794165457e-37 0.0 0.004614506889233912 0.0 7.949985794165457e-37 0.0 0.004614506889233912" energy=-11.7225287328 Minim_Constant_Volume=T Minim_Hydrostatic_Strain=F pbc="T T T"
Ti       0.00000000      -0.00000000      -0.00000000       22       0.00000000      -0.00000000       0.00000000 
Ti       1.71531663       1.71531663       1.71531663       22      -0.00000000       0.00000000       0.00000000 
2
Lattice="3.4558594138899204 0.0 0.0 0.0 3.4558594138899204 0.0 0.0 0.0 3.4558594138899204" Properties=species:S:1:pos:R:3:Z:I:1:forces:R:3 stress="-0.015625643980448963 1.7201133859027516e-34 -5.1603401577082545e-34 1.7201133859027516e-34 -0.01562564398044898 0.0 -5.1603401577082545e-34 0.0 -0.015625643980448984" energy=-11.7264526722 Minim_Constant_Volume=T Minim_Hydrostatic_Strain=F pbc="T T T"
Ti       0.00000000      -0.00000000      -0.00000000       22       0.00000000       0.00000000       0.00000000 
Ti       1.72792971       1.72792971       1.72792971       22       0.00000000       0.00000000       0.00000000 
