8
Lattice="5.472419586138889 1.0812444703765182e-28 -9.460889115794537e-29 1.0812444703765182e-28 5.472419586138889 0.0 -9.460889115794537e-29 0.0 5.472419586138889" Properties=species:S:1:pos:R:3:forces:R:3 stress="4.936850600390728e-06 3.596502360350212e-29 8.194108592906452e-45 3.596502360350212e-29 4.936850600390725e-06 2.2495770179503455e-21 8.194108592906452e-45 2.2495770179503455e-21 4.93685060039073e-06" energy=-1305.4607367 Minim_Constant_Volume=T Minim_Hydrostatic_Strain=F pbc="T T T"
Si       0.00000000      -0.00000000      -0.00000000       0.00000000      -0.00000000       0.00000000 
Si       1.36810490       1.36810490       1.36810490       0.00000000      -0.00000000      -0.00000000 
Si       2.73620979       2.73620979      -0.00000000       0.00000000      -0.00000000      -0.00000000 
Si       4.10431469       4.10431469       1.36810490      -0.00000000      -0.00000000       0.00000000 
Si       2.73620979      -0.00000000       2.73620979       0.00000000      -0.00000000       0.00000000 
Si       4.10431469       1.36810490       4.10431469       0.00000000      -0.00000000      -0.00000000 
Si      -0.00000000       2.73620979       2.73620979       0.00000000      -0.00000000       0.00000000 
Si       1.36810490       4.10431469       4.10431469      -0.00000000      -0.00000000      -0.00000000 
8
Lattice="5.426430692652841 1.0721579527954332e-28 -9.381382086960044e-29 1.0721579527954332e-28 5.426430692652841 0.0 -9.381382086960044e-29 0.0 5.426430692652841" Properties=species:S:1:pos:R:3:forces:R:3 stress="-0.015664347876151685 -7.315442507682262e-29 1.642146637880645e-44 -7.315442507682262e-29 -0.01566434787615169 1.4631058675916504e-28 1.642146637880645e-44 1.4631058675916504e-28 -0.01566434787615168" energy=-1305.43022417 Minim_Constant_Volume=T Minim_Hydrostatic_Strain=F pbc="T T T"
Si       0.00000000      -0.00000000      -0.00000000       0.00000000       0.00000000      -0.00000000 
Si       1.35660767       1.35660767       1.35660767      -0.00000000       0.00000000       0.00000000 
Si       2.71321535       2.71321535      -0.00000000      -0.00000000       0.00000000      -0.00000000 
Si       4.06982302       4.06982302       1.35660767      -0.00000000       0.00000000       0.00000000 
Si       2.71321535      -0.00000000       2.71321535      -0.00000000       0.00000000      -0.00000000 
Si       4.06982302       1.35660767       4.06982302      -0.00000000      -0.00000000       0.00000000 
Si      -0.00000000       2.71321535       2.71321535      -0.00000000       0.00000000      -0.00000000 
Si       1.35660767       4.06982302       4.06982302      -0.00000000       0.00000000       0.00000000 
8
Lattice="5.379648789809094 1.062914751873557e-28 -9.300504078893627e-29 1.062914751873557e-28 5.379648789809094 0.0 -9.300504078893627e-29 0.0 5.379648789809094" Properties=species:S:1:pos:R:3:forces:R:3 stress="-0.03704792401032735 1.86080679726444e-29 -7.443227189057763e-29 1.86080679726444e-29 -0.03704792401032735 -2.7659099950269166e-18 -7.443227189057763e-29 -2.7659099950269166e-18 -0.03704792401032735" energy=-1305.32459594 Minim_Constant_Volume=T Minim_Hydrostatic_Strain=F pbc="T T T"
Si       0.00000000      -0.00000000      -0.00000000       0.00000000      -0.00000000      -0.00000000 
Si       1.34491220       1.34491220       1.34491220      -0.00000000       0.00000000      -0.00000000 
Si       2.68982439       2.68982439      -0.00000000       0.00000000      -0.00000000      -0.00000000 
Si       4.03473659       4.03473659       1.34491220       0.00000000      -0.00000000       0.00000000 
Si       2.68982439      -0.00000000       2.68982439      -0.00000000      -0.00000000      -0.00000000 
Si       4.03473659       1.34491220       4.03473659      -0.00000000      -0.00000000       0.00000000 
Si      -0.00000000       2.68982439       2.68982439       0.00000000       0.00000000      -0.00000000 
Si       1.34491220       4.03473659       4.03473659       0.00000000       0.00000000      -0.00000000 
8
Lattice="5.3320387815241705 1.0535079333022905e-28 -9.218194416395045e-29 1.0535079333022905e-28 5.3320387815241705 0.0 -9.218194416395045e-29 0.0 5.3320387815241705" Properties=species:S:1:pos:R:3:forces:R:3 stress="-0.06495514005758919 2.7201814573983584e-45 -3.7883712129137806e-29 2.7201814573983584e-45 -0.06495514005758923 2.403239592374539e-17 -3.7883712129137806e-29 2.403239592374539e-17 -0.06495514005758923" energy=-1305.11763467 Minim_Constant_Volume=T Minim_Hydrostatic_Strain=F pbc="T T T"
Si       0.00000000      -0.00000000      -0.00000000       0.00000000       0.00000000       0.00000000 
Si       1.33300970       1.33300970       1.33300970       0.00000000      -0.00000000       0.00000000 
Si       2.66601939       2.66601939      -0.00000000       0.00000000       0.00000000       0.00000000 
Si       3.99902909       3.99902909       1.33300970      -0.00000000      -0.00000000      -0.00000000 
Si       2.66601939      -0.00000000       2.66601939       0.00000000       0.00000000       0.00000000 
Si       3.99902909       1.33300970       3.99902909      -0.00000000       0.00000000       0.00000000 
Si      -0.00000000       2.66601939       2.66601939       0.00000000       0.00000000      -0.00000000 
Si       1.33300970       3.99902909       3.99902909      -0.00000000      -0.00000000      -0.00000000 
8
Lattice="5.28356301852503 1.0439300583120647e-28 -9.134388010230568e-29 1.0439300583120647e-28 5.28356301852503 0.0 -9.134388010230568e-29 0.0 5.28356301852503" Properties=species:S:1:pos:R:3:forces:R:3 stress="-0.0969628233876902 0.0 0.0 0.0 -0.09696282338769019 -3.858205389585802e-29 0.0 -3.858205389585802e-29 -0.09696282338769019" energy=-1304.78625601 Minim_Constant_Volume=T Minim_Hydrostatic_Strain=F pbc="T T T"
Si       0.00000000      -0.00000000      -0.00000000       0.00000000       0.00000000      -0.00000000 
Si       1.32089075       1.32089075       1.32089075      -0.00000000       0.00000000      -0.00000000 
Si       2.64178151       2.64178151      -0.00000000      -0.00000000      -0.00000000      -0.00000000 
Si       3.96267226       3.96267226       1.32089075       0.00000000      -0.00000000       0.00000000 
Si       2.64178151      -0.00000000       2.64178151      -0.00000000       0.00000000       0.00000000 
Si       3.96267226       1.32089075       3.96267226       0.00000000      -0.00000000      -0.00000000 
Si      -0.00000000       2.64178151       2.64178151      -0.00000000      -0.00000000      -0.00000000 
Si       1.32089075       3.96267226       3.96267226      -0.00000000       0.00000000       0.00000000 
8
Lattice="5.234181035769726 1.0341731317917293e-28 -9.049014903177633e-29 1.0341731317917293e-28 5.234181035769726 0.0 -9.049014903177633e-29 0.0 5.234181035769726" Properties=species:S:1:pos:R:3:forces:R:3 stress="-0.12525517293784294 -2.457093397867294e-29 1.9656747182938344e-29 -2.457093397867294e-29 -0.12525517293784297 1.9652189152527355e-29 1.9656747182938344e-29 1.9652189152527355e-29 -0.1252551729378429" energy=-1304.328277 Minim_Constant_Volume=T Minim_Hydrostatic_Strain=F pbc="T T T"
Si       0.00000000      -0.00000000      -0.00000000      -0.00000000       0.00000000       0.00000000 
Si       1.30854526       1.30854526       1.30854526       0.00000000      -0.00000000      -0.00000000 
Si       2.61709052       2.61709052      -0.00000000      -0.00000000      -0.00000000      -0.00000000 
Si       3.92563578       3.92563578       1.30854526       0.00000000      -0.00000000      -0.00000000 
Si       2.61709052      -0.00000000       2.61709052       0.00000000       0.00000000       0.00000000 
Si       3.92563578       1.30854526       3.92563578       0.00000000      -0.00000000      -0.00000000 
Si      -0.00000000       2.61709052       2.61709052      -0.00000000      -0.00000000       0.00000000 
Si       1.30854526       3.92563578       3.92563578       0.00000000      -0.00000000      -0.00000000 
8
Lattice="5.5176482453469236 1.0901807803398658e-28 -9.539081827973827e-29 1.0901807803398658e-28 5.5176482453469236 0.0 -9.539081827973827e-29 0.0 5.5176482453469236" Properties=species:S:1:pos:R:3:forces:R:3 stress="0.011882265113106536 -1.7688911552776008e-29 3.537782310555201e-29 -1.7688911552776008e-29 0.01188226511310653 1.819715468644989e-18 3.537782310555201e-29 1.819715468644989e-18 0.011882265113106538" energy=-1305.43529732 Minim_Constant_Volume=T Minim_Hydrostatic_Strain=F pbc="T T T"
Si       0.00000000      -0.00000000      -0.00000000      -0.00000000      -0.00000000       0.00000000 
Si       1.37941206       1.37941206       1.37941206       0.00000000       0.00000000      -0.00000000 
Si       2.75882412       2.75882412      -0.00000000       0.00000000       0.00000000      -0.00000000 
Si       4.13823618       4.13823618       1.37941206      -0.00000000      -0.00000000       0.00000000 
Si       2.75882412      -0.00000000       2.75882412       0.00000000       0.00000000       0.00000000 
Si       4.13823618       1.37941206       4.13823618       0.00000000       0.00000000      -0.00000000 
Si      -0.00000000       2.75882412       2.75882412      -0.00000000      -0.00000000      -0.00000000 
Si       1.37941206       4.13823618       4.13823618       0.00000000       0.00000000      -0.00000000 
8
Lattice="5.562147330313815 1.098972940516899e-28 -9.616013229522868e-29 1.098972940516899e-28 5.562147330313815 0.0 -9.616013229522868e-29 0.0 5.562147330313815" Properties=species:S:1:pos:R:3:forces:R:3 stress="0.021404056658901667 1.7516230804060213e-46 2.611051354525698e-29 1.7516230804060213e-46 0.021404056658901674 -3.481401806034265e-29 2.611051354525698e-29 -3.481401806034265e-29 0.021404056658901674" energy=-1305.36652621 Minim_Constant_Volume=T Minim_Hydrostatic_Strain=F pbc="T T T"
Si       0.00000000      -0.00000000      -0.00000000      -0.00000000       0.00000000       0.00000000 
Si       1.39053683       1.39053683       1.39053683      -0.00000000       0.00000000      -0.00000000 
Si       2.78107367       2.78107367      -0.00000000      -0.00000000       0.00000000      -0.00000000 
Si       4.17161050       4.17161050       1.39053683      -0.00000000       0.00000000      -0.00000000 
Si       2.78107367      -0.00000000       2.78107367      -0.00000000      -0.00000000       0.00000000 
Si       4.17161050       1.39053683       4.17161050       0.00000000       0.00000000      -0.00000000 
Si      -0.00000000       2.78107367       2.78107367      -0.00000000       0.00000000      -0.00000000 
Si       1.39053683       4.17161050       4.17161050      -0.00000000      -0.00000000      -0.00000000 
8
Lattice="5.605945569281783 1.1076266270537088e-28 -9.691732986719954e-29 1.1076266270537088e-28 5.605945569281783 0.0 -9.691732986719954e-29 0.0 5.605945569281783" Properties=species:S:1:pos:R:3:forces:R:3 stress="0.02914103522331951 -8.568037964534358e-30 -1.1385550022639139e-45 -8.568037964534358e-30 0.029141035223319508 4.534235689504362e-18 -1.1385550022639139e-45 4.534235689504362e-18 0.029141035223319504" energy=-1305.26282891 Minim_Constant_Volume=T Minim_Hydrostatic_Strain=F pbc="T T T"
Si       0.00000000      -0.00000000      -0.00000000       0.00000000       0.00000000       0.00000000 
Si       1.40148639       1.40148639       1.40148639       0.00000000      -0.00000000      -0.00000000 
Si       2.80297278       2.80297278      -0.00000000       0.00000000       0.00000000       0.00000000 
Si       4.20445918       4.20445918       1.40148639       0.00000000      -0.00000000      -0.00000000 
Si       2.80297278      -0.00000000       2.80297278       0.00000000      -0.00000000      -0.00000000 
Si       4.20445918       1.40148639       4.20445918       0.00000000      -0.00000000      -0.00000000 
Si      -0.00000000       2.80297278       2.80297278       0.00000000       0.00000000       0.00000000 
Si       1.40148639       4.20445918       4.20445918       0.00000000      -0.00000000      -0.00000000 
8
Lattice="5.649069922205138 1.1161471667168309e-28 -9.766287708772273e-29 1.1161471667168309e-28 5.649069922205138 0.0 -9.766287708772273e-29 0.0 5.649069922205138" Properties=species:S:1:pos:R:3:forces:R:3 stress="0.03679705715693629 8.437722435866849e-30 8.758115402030107e-46 8.437722435866849e-30 0.03679705715693628 -8.654291816983413e-18 8.758115402030107e-46 -8.654291816983413e-18 0.03679705715693629" energy=-1305.12783311 Minim_Constant_Volume=T Minim_Hydrostatic_Strain=F pbc="T T T"
Si       0.00000000      -0.00000000      -0.00000000      -0.00000000       0.00000000      -0.00000000 
Si       1.41226748       1.41226748       1.41226748      -0.00000000      -0.00000000      -0.00000000 
Si       2.82453496       2.82453496      -0.00000000      -0.00000000       0.00000000       0.00000000 
Si       4.23680244       4.23680244       1.41226748       0.00000000       0.00000000      -0.00000000 
Si       2.82453496      -0.00000000       2.82453496       0.00000000       0.00000000      -0.00000000 
Si       4.23680244       1.41226748       4.23680244       0.00000000      -0.00000000       0.00000000 
Si      -0.00000000       2.82453496       2.82453496      -0.00000000       0.00000000       0.00000000 
Si       1.41226748       4.23680244       4.23680244       0.00000000      -0.00000000      -0.00000000 
8
Lattice="5.69154572703995 1.1245395657972597e-28 -9.839721200726025e-29 1.1245395657972597e-28 5.69154572703995 0.0 -9.839721200726025e-29 0.0 5.69154572703995" Properties=species:S:1:pos:R:3:forces:R:3 stress="0.042389043544254906 8.31225153259163e-30 -1.1385550022639139e-45 8.31225153259163e-30 0.04238904354425491 -1.6740718509895416e-17 -1.1385550022639139e-45 -1.6740718509895416e-17 0.04238904354425489" energy=-1304.96355092 Minim_Constant_Volume=T Minim_Hydrostatic_Strain=F pbc="T T T"
Si       0.00000000      -0.00000000      -0.00000000      -0.00000000       0.00000000      -0.00000000 
Si       1.42288643       1.42288643       1.42288643      -0.00000000      -0.00000000       0.00000000 
Si       2.84577286       2.84577286      -0.00000000       0.00000000       0.00000000      -0.00000000 
Si       4.26865930       4.26865930       1.42288643      -0.00000000       0.00000000      -0.00000000 
Si       2.84577286      -0.00000000       2.84577286      -0.00000000      -0.00000000       0.00000000 
Si       4.26865930       1.42288643       4.26865930      -0.00000000       0.00000000       0.00000000 
Si      -0.00000000       2.84577286       2.84577286       0.00000000       0.00000000      -0.00000000 
Si       1.42288643       4.26865930       4.26865930       0.00000000       0.00000000      -0.00000000 
8
Lattice="5.733396830969624 1.1328085360380887e-28 -9.912074690333279e-29 1.1328085360380887e-28 5.733396830969624 0.0 -9.912074690333279e-29 0.0 5.733396830969624" Properties=species:S:1:pos:R:3:forces:R:3 stress="0.047353104885258575 1.0239179214391545e-30 1.7516230804060213e-46 1.0239179214391545e-30 0.04735310488525856 -1.130321425981047e-17 1.7516230804060213e-46 -1.130321425981047e-17 0.04735310488525856" energy=-1304.78027964 Minim_Constant_Volume=T Minim_Hydrostatic_Strain=F pbc="T T T"
Si       0.00000000      -0.00000000      -0.00000000      -0.00000000      -0.00000000       0.00000000 
Si       1.43334921       1.43334921       1.43334921       0.00000000      -0.00000000      -0.00000000 
Si       2.86669842       2.86669842      -0.00000000      -0.00000000       0.00000000      -0.00000000 
Si       4.30004762       4.30004762       1.43334921       0.00000000       0.00000000      -0.00000000 
Si       2.86669842      -0.00000000       2.86669842      -0.00000000       0.00000000      -0.00000000 
Si       4.30004762       1.43334921       4.30004762       0.00000000      -0.00000000      -0.00000000 
Si      -0.00000000       2.86669842       2.86669842       0.00000000       0.00000000      -0.00000000 
Si       1.43334921       4.30004762       4.30004762       0.00000000       0.00000000      -0.00000000 
