2
Lattice="2.95 0.0 0.0 -1.4749999999999994 2.5547749411640948 0.0 0.0 0.0 4.6846000000000005" Properties=species:S:1:pos:R:3:Z:I:1:forces:R:3 energy=-12.1494442257 stress="0.020233180045111012 1.487298266080496e-18 0.0 1.487298266080496e-18 0.020233180045110995 0.0 0.0 0.0 0.05030374139060036" pbc="T T T"
Ti       0.00000000       0.00000000       0.00000000       22       0.00000000       0.00000000      -0.00000000 
Ti       0.00000000       1.70318329       2.34230000       22       0.00000000       0.00000000       0.00000000 
2
Lattice="2.930894520145415 -1.4044034104874402e-18 0.0 -1.4654472600727069 2.5382291102585324 0.0 0.0 0.0 4.609169916366005" Properties=species:S:1:pos:R:3:Z:I:1:forces:R:3 energy=-12.1731277142 stress="-0.020110711811965217 1.7296169111533908e-18 0.0 1.7296169111533908e-18 -0.020110711811965193 0.0 0.0 0.0 0.01883688456610779" pbc="T T T"
Ti       0.00000000       0.00000000      -0.00000000       22      -0.00000000       0.00000000       0.00000000 
Ti       0.00000000       1.69215274       2.30458496       22       0.00000000      -0.00000000       0.00000000 
2
Lattice="2.9386970191258635 -2.6435512093509442e-18 0.0 -1.469348509562931 2.5449862725886025 0.0 0.0 0.0 4.577854148826525" Properties=species:S:1:pos:R:3:Z:I:1:forces:R:3 energy=-12.1775838862 stress="-0.010298075115477418 3.2295856639020643e-18 -1.6702078131350192e-35 3.2295856639020643e-18 -0.010298075115477413 -9.780705723806347e-35 -1.6702078131350192e-35 -9.780705723806347e-35 -0.0056090114961707335" pbc="T T T"
Ti      -0.00000000       0.00000000      -0.00000000       22       0.00000000      -0.00000000       0.00000000 
Ti       0.00000000       1.69665752       2.28892707       22      -0.00000000       0.00000000       0.00000000 
2
Lattice="2.9459858059895296 -8.599343832744756e-17 4.548772685559546e-34 -1.4729929029947642 2.551298547175308 2.0794389419700767e-33 7.363564431406202e-34 4.3120895624770566e-33 4.584017293630032" Properties=species:S:1:pos:R:3:Z:I:1:forces:R:3 energy=-12.1782033996 stress="0.003088514731772797 1.839299016890265e-19 3.983945156187733e-36 1.839299016890265e-19 0.0030885147317727952 8.141789288040171e-36 3.983945156187733e-36 8.141789288040171e-36 0.004113190335834804" pbc="T T T"
Ti       0.00000000      -0.00000000      -0.00000000       22       0.00000000      -0.00000000      -0.00000000 
Ti       0.00000000       1.70086570       2.29200865       22      -0.00000000       0.00000000       0.00000000 
2
Lattice="2.9445151999594827 -9.413657160627252e-17 4.155024990865558e-34 -1.4722575999797407 2.550024964994329 2.1460342870178913e-33 6.669165938477132e-34 4.366915059961741e-33 4.580476937466342" Properties=species:S:1:pos:R:3:Z:I:1:forces:R:3 energy=-12.178313936 stress="0.0001757564798661011 -1.269058085532444e-20 -1.0711894240563907e-37 -1.269058085532444e-20 0.00017575647986610096 8.756976041044288e-35 -1.0711894240563907e-37 8.756976041044288e-35 -6.429778552051639e-05" pbc="T T T"
Ti      -0.00000000      -0.00000000      -0.00000000       22       0.00000000      -0.00000000       0.00000000 
Ti       0.00000000       1.70001664       2.29023847       22      -0.00000000       0.00000000       0.00000000 
