2
Lattice="2.944449556181529 -9.412137354153244e-17 4.156089014424558e-34 -1.4722247780907638 2.5499681158150205 2.5805210539521287e-31 6.670384259089453e-34 4.640374624767011e-31 4.580681167901973" Properties=species:S:1:pos:R:3:Z:I:1:forces:R:3 stress="9.931563329532698e-05 2.581780835932768e-21 7.801454644285848e-32 2.581780835932768e-21 9.931563329532687e-05 6.30403866772326e-31 7.801454644285848e-32 6.30403866772326e-31 0.00010881283321329986" energy=-12.1783141127 Minim_Constant_Volume=T Minim_Hydrostatic_Strain=F pbc="T T T"
Ti      -0.00000000      -0.00000000      -0.00000000       22       0.00000000      -0.00000000       0.00000000 
Ti       0.00000000       1.69997874       2.29034058       22       0.00000000      -0.00000000      -0.00000000 
2
Lattice="2.9179913727817803 -9.745151738114427e-17 1.1194402741336254e-32 -1.4589956863908895 2.527054656852851 3.2453657420939186e-31 1.743429870434967e-32 5.9233835367368115e-31 4.547518367261317" Properties=species:S:1:pos:R:3:Z:I:1:forces:R:3 stress="-0.0508610488132333 1.3766199006026699e-17 -1.655993109648843e-32 1.3766199006026699e-17 -0.05086104881323322 -1.7295265938157847e-31 -1.655993109648843e-32 -1.7295265938157847e-31 -0.05085495066277744" energy=-12.155572046 Minim_Constant_Volume=T Minim_Hydrostatic_Strain=F pbc="T T T"
Ti      -0.00000000      -0.00000000      -0.00000000       22       0.00000000      -0.00000000      -0.00000000 
Ti       0.00000000       1.68470310       2.27375918       22       0.00000000       0.00000000       0.00000000 
2
Lattice="2.8898954563101227 -1.0919090632645857e-16 8.438553798207845e-32 -1.4449477281550607 2.50272287944579 3.3170249497243847e-31 1.3144575776468943e-31 6.693093853956594e-31 4.517480613907124" Properties=species:S:1:pos:R:3:Z:I:1:forces:R:3 stress="-0.109754696438644 7.417817032558741e-17 -7.26550568385463e-32 7.417817032558741e-17 -0.10975469643864384 -1.4902336069294894e-31 -7.26550568385463e-32 -1.4902336069294894e-31 -0.10991575571717827" energy=-12.0844834189 Minim_Constant_Volume=T Minim_Hydrostatic_Strain=F pbc="T T T"
Ti      -0.00000000      -0.00000000      -0.00000000       22      -0.00000000       0.00000000       0.00000000 
Ti       0.00000000       1.66848192       2.25874031       22       0.00000000      -0.00000000      -0.00000000 
2
Lattice="2.857046710893055 -1.2622609047547987e-16 2.673175455971285e-33 -1.4285233554465269 2.4742750314321618 -5.413500421925331e-32 2.7220333311237086e-33 -1.059181273815222e-31 4.500253307711165" Properties=species:S:1:pos:R:3:Z:I:1:forces:R:3 stress="-0.12264607962193068 1.5184558223753494e-17 8.858219148589599e-33 1.5184558223753494e-17 -0.12264607962193062 1.9522025401287813e-32 8.858219148589599e-33 1.9522025401287813e-32 -0.12265840400511417" energy=-11.9774824517 Minim_Constant_Volume=T Minim_Hydrostatic_Strain=F pbc="T T T"
Ti      -0.00000000      -0.00000000      -0.00000000       22      -0.00000000       0.00000000       0.00000000 
Ti       0.00000000       1.64951669       2.25012665       22      -0.00000000       0.00000000      -0.00000000 
2
Lattice="2.7942051695501737 -1.1832142586214185e-16 1.0820662227468155e-31 -1.3971025847750862 2.419852660216257 -3.0923467030223347e-31 1.688218234966486e-31 -4.699878910829503e-31 4.575567173494832" Properties=species:S:1:pos:R:3:Z:I:1:forces:R:3 stress="0.07299823609285183 -4.440997568383262e-17 2.9404036595997712e-33 -4.440997568383262e-17 0.07299823609285169 -3.84887453595987e-31 2.9404036595997712e-33 -3.84887453595987e-31 0.07303302499291782" energy=-11.9308761923 Minim_Constant_Volume=T Minim_Hydrostatic_Strain=F pbc="T T T"
Ti      -0.00000000      -0.00000000      -0.00000000       22      -0.00000000       0.00000000      -0.00000000 
Ti       0.00000000       1.61323511       2.28778359       22      -0.00000000       0.00000000      -0.00000000 
2
Lattice="2.6385109678067864 -7.03029229047161e-17 -1.6666029021366423e-31 -1.3192554839033925 2.2850175262845442 5.174595163017323e-31 -3.0555173503704336e-31 8.999609746866952e-31 4.959466492887492" Properties=species:S:1:pos:R:3:Z:I:1:forces:R:3 stress="0.2658074337267479 -5.895243169372487e-17 5.512546017095523e-31 -5.895243169372487e-17 0.2658074337267474 1.4433004105056887e-30 5.512546017095523e-31 1.4433004105056887e-30 0.2657132696297703" energy=-12.3983369762 Minim_Constant_Volume=T Minim_Hydrostatic_Strain=F pbc="T T T"
Ti      -0.00000000      -0.00000000      -0.00000000       22      -0.00000000       0.00000000      -0.00000000 
Ti       0.00000000       1.52334502       2.47973325       22      -0.00000000       0.00000000       0.00000000 
2
Lattice="2.9702821660802887 -1.0570368027928754e-16 5.093131056566119e-34 -1.4851410830401437 2.5723398122334 2.0885204346413548e-33 8.139703434095184e-34 4.3552396166582203e-33 4.613881637552842" Properties=species:S:1:pos:R:3:Z:I:1:forces:R:3 stress="0.03689535547839462 -2.3180240582038518e-18 6.605805369062626e-35 -2.3180240582038518e-18 0.036895355478394586 7.275650665756419e-35 6.605805369062626e-35 7.275650665756419e-35 0.03691535088926535" energy=-12.1609362411 Minim_Constant_Volume=T Minim_Hydrostatic_Strain=F pbc="T T T"
Ti      -0.00000000      -0.00000000      -0.00000000       22       0.00000000      -0.00000000       0.00000000 
Ti       0.00000000       1.71489321       2.30694082       22      -0.00000000       0.00000000       0.00000000 
2
Lattice="2.9942377849082566 -1.0655619089339716e-16 5.134207661215095e-34 -1.4971188924541277 2.593085986701797 2.1053645580778544e-33 8.205350945657092e-34 4.39036505401652e-33 4.6510930483369" Properties=species:S:1:pos:R:3:Z:I:1:forces:R:3 stress="0.05474090027520609 -8.017688475195138e-18 7.92668066902355e-35 -8.017688475195138e-18 0.05474090027520604 1.8225736484777033e-34 7.92668066902355e-35 1.8225736484777033e-34 0.05475067838810606" energy=-12.1202512426 Minim_Constant_Volume=T Minim_Hydrostatic_Strain=F pbc="T T T"
Ti      -0.00000000      -0.00000000      -0.00000000       22      -0.00000000       0.00000000       0.00000000 
Ti       0.00000000       1.72872399       2.32554652       22       0.00000000      -0.00000000      -0.00000000 
2
Lattice="2.9193237932607046 -6.574488176108889e-16 -1.247158717152699e-33 -1.459661896630352 2.528208566836124 1.3231207725852834e-33 -1.993533508270531e-33 9.864289134927728e-34 4.993700898702971" Properties=species:S:1:pos:R:3:Z:I:1:forces:R:3 stress="0.012864047209310553 -3.2238905009780514e-18 8.542787190108084e-35 -3.2238905009780514e-18 0.012864047209310525 2.9127707443903367e-34 8.542787190108084e-35 2.9127707443903367e-34 0.012798368699373253" energy=-12.1892734448 Minim_Constant_Volume=T Minim_Hydrostatic_Strain=F pbc="T T T"
Ti      -0.00000000      -0.00000000      -0.00000000       22       0.00000000      -0.00000000      -0.00000000 
Ti       0.00000000       1.68547238       2.49685045       22      -0.00000000       0.00000000       0.00000000 
2
Lattice="2.945601931267142 -6.809558541931962e-16 -3.0231396951104176e-33 -1.4728009656335708 2.550966101913852 -6.613742508872605e-31 -5.031853159145882e-33 -1.3097254993788556e-30 5.034806577812975" Properties=species:S:1:pos:R:3:Z:I:1:forces:R:3 stress="0.04249123348280901 -1.1327034776727075e-17 -1.0756937682751282e-31 -1.1327034776727075e-17 0.04249123348280895 -1.2489404029134334e-31 -1.0756937682751282e-31 -1.2489404029134334e-31 0.042481783443353724" energy=-12.1598563227 Minim_Constant_Volume=T Minim_Hydrostatic_Strain=F pbc="T T T"
Ti      -0.00000000      -0.00000000      -0.00000000       22      -0.00000000       0.00000000      -0.00000000 
Ti       0.00000000       1.70064407       2.51740329       22       0.00000000      -0.00000000       0.00000000 
2
Lattice="2.966373890778171 -6.078766449215345e-16 -1.920793270414799e-31 -1.4831869453890854 2.5689551465367857 -3.681638045563404e-31 -3.2817028320662972e-31 -9.157646312120252e-31 5.077369435076172" Properties=species:S:1:pos:R:3:Z:I:1:forces:R:3 stress="0.05539173401161779 5.49150441961849e-18 -5.209027636512072e-32 5.49150441961849e-18 0.055391734011617684 1.0216532094270097e-32 -5.209027636512072e-32 1.0216532094270097e-32 0.05537728625053972" energy=-12.1172983443 Minim_Constant_Volume=T Minim_Hydrostatic_Strain=F pbc="T T T"
Ti      -0.00000000      -0.00000000      -0.00000000       22       0.00000000       0.00000000       0.00000000 
Ti       0.00000000       1.71263676       2.53868472       22      -0.00000000       0.00000000      -0.00000000 
2
Lattice="2.990616076201146 -7.204688691485518e-16 -1.0910818984933669e-30 -1.4953080381005728 2.589949494956336 -7.757387187810951e-31 -1.867743419407084e-30 -2.6119589344239625e-30 5.10638967956507" Properties=species:S:1:pos:R:3:Z:I:1:forces:R:3 stress="0.06365707534174497 1.3874156461290116e-17 2.2268837129835625e-31 1.3874156461290116e-17 0.06365707534174475 7.326808115168884e-31 2.2268837129835625e-31 7.326808115168884e-31 0.06366732580489591" energy=-12.0659624757 Minim_Constant_Volume=T Minim_Hydrostatic_Strain=F pbc="T T T"
Ti      -0.00000000      -0.00000000       0.00000000       22      -0.00000000       0.00000000       0.00000000 
Ti       0.00000000       1.72663300       2.55319484       22       0.00000000      -0.00000000      -0.00000000 
