2
Lattice="3.278846839635737 2.0801647349717984e-35 1.9621529106048648e-35 2.0801647349717984e-35 3.278846839635737 5.979693856782265e-73 1.9621529106048648e-35 1.1959387713564527e-72 3.278846839635737" Properties=species:S:1:pos:R:3:Z:I:1:forces:R:3 stress="0.00047471216730306747 -5.669598440752126e-53 -3.3346833073900555e-52 -5.669598440752126e-53 0.0004747121673030673 -1.355436395779186e-19 -3.3346833073900555e-52 -1.355436395779186e-19 0.00047471216730306736" energy=-12.0077918959 Minim_Constant_Volume=T Minim_Hydrostatic_Strain=F pbc="T T T"
Ti       0.00000000       0.00000000       0.00000000       22       0.00000000      -0.00000000      -0.00000000 
Ti       1.63942342       1.63942342       1.63942342       22      -0.00000000       0.00000000       0.00000000 
2
Lattice="3.2512922021136044 2.062683532566858e-35 1.945663451090885e-35 2.062683532566858e-35 3.2512922021136044 5.929441952751498e-73 1.945663451090885e-35 1.1858883905502993e-72 3.2512922021136044" Properties=species:S:1:pos:R:3:Z:I:1:forces:R:3 stress="-0.016345773796688782 2.9150664790278775e-34 -4.160458190083101e-50 2.9150664790278775e-34 -0.016345773796688768 4.303207523792518e-18 -4.160458190083101e-50 4.303207523792518e-18 -0.01634577379668878" energy=-12.0010794037 Minim_Constant_Volume=T Minim_Hydrostatic_Strain=F pbc="T T T"
Ti       0.00000000       0.00000000       0.00000000       22       0.00000000       0.00000000       0.00000000 
Ti       1.62564610       1.62564610       1.62564610       22       0.00000000       0.00000000       0.00000000 
2
Lattice="3.2232624262755296 2.0449008930965725e-35 1.9288896556273584e-35 2.0449008930965725e-35 3.2232624262755296 5.878323530152491e-73 1.9288896556273584e-35 1.175664706030498e-72 3.2232624262755296" Properties=species:S:1:pos:R:3:Z:I:1:forces:R:3 stress="-0.035275964465703476 -7.909296733797744e-34 7.909296733797747e-34 -7.909296733797744e-34 -0.03527596446570347 2.9498170176273335e-18 7.909296733797747e-34 2.9498170176273335e-18 -0.035275964465703476" energy=-11.9784589333 Minim_Constant_Volume=T Minim_Hydrostatic_Strain=F pbc="T T T"
Ti       0.00000000       0.00000000       0.00000000       22       0.00000000       0.00000000       0.00000000 
Ti       1.61163121       1.61163121       1.61163121       22       0.00000000       0.00000000       0.00000000 
2
Lattice="3.194736484003951 2.0268034759107878e-35 1.9118189404053742e-35 2.0268034759107878e-35 3.194736484003951 5.826300239616835e-73 1.9118189404053742e-35 1.1652600479233668e-72 3.194736484003951" Properties=species:S:1:pos:R:3:Z:I:1:forces:R:3 stress="-0.05605052230371188 1.1458262572697093e-52 1.2928275640926352e-52 1.1458262572697093e-52 -0.056050522303711846 1.724889763183525e-17 1.2928275640926352e-52 1.724889763183525e-17 -0.05605052230371188" energy=-11.9383622484 Minim_Constant_Volume=T Minim_Hydrostatic_Strain=F pbc="T T T"
Ti       0.00000000       0.00000000       0.00000000       22       0.00000000       0.00000000       0.00000000 
Ti       1.59736824       1.59736824       1.59736824       22       0.00000000       0.00000000       0.00000000 
2
Lattice="3.165691817416022 2.0083769698462546e-35 1.894437806162036e-35 2.0083769698462546e-35 3.165691817416022 5.773330941914773e-73 1.894437806162036e-35 1.1546661883829544e-72 3.165691817416022" Properties=species:S:1:pos:R:3:Z:I:1:forces:R:3 stress="-0.0798928779863274 -5.399260726738729e-50 6.149689612665473e-34 -5.399260726738729e-50 -0.07989287798632735 1.4039671098538715e-17 6.149689612665473e-34 1.4039671098538715e-17 -0.07989287798632734" energy=-11.8787765551 Minim_Constant_Volume=T Minim_Hydrostatic_Strain=F pbc="T T T"
Ti       0.00000000       0.00000000       0.00000000       22       0.00000000      -0.00000000      -0.00000000 
Ti       1.58284591       1.58284591       1.58284591       22      -0.00000000       0.00000000      -0.00000000 
2
Lattice="3.1361041815369504 1.989605993415508e-35 1.876731744031825e-35 1.989605993415508e-35 3.1361041815369504 5.719371421035644e-73 1.876731744031825e-35 1.1438742842071285e-72 3.1361041815369504" Properties=species:S:1:pos:R:3:Z:I:1:forces:R:3 stress="-0.10494463940321476 -4.2067101698505805e-52 -5.20825345877766e-52 -4.2067101698505805e-52 -0.10494463940321473 3.6539362920063806e-17 -5.20825345877766e-52 3.6539362920063806e-17 -0.1049446394032148" energy=-11.7973763977 Minim_Constant_Volume=T Minim_Hydrostatic_Strain=F pbc="T T T"
Ti       0.00000000       0.00000000       0.00000000       22       0.00000000       0.00000000       0.00000000 
Ti       1.56805209       1.56805209       1.56805209       22       0.00000000       0.00000000       0.00000000 
2
Lattice="3.3059459763102805 2.0973569587064173e-35 1.9783697857751432e-35 2.0973569587064173e-35 3.3059459763102805 6.029115055460417e-73 1.9783697857751432e-35 1.2058230110920832e-72 3.3059459763102805" Properties=species:S:1:pos:R:3:Z:I:1:forces:R:3 stress="0.015314119516090956 4.6991327422628066e-35 -9.398265484525615e-35 4.6991327422628066e-35 0.015314119516090952 -3.043062765143099e-18 -9.398265484525615e-35 -3.043062765143099e-18 0.015314119516090956" energy=-12.0008404037 Minim_Constant_Volume=T Minim_Hydrostatic_Strain=F pbc="T T T"
Ti       0.00000000       0.00000000       0.00000000       22       0.00000000       0.00000000      -0.00000000 
Ti       1.65297299       1.65297299       1.65297299       22       0.00000000       0.00000000      -0.00000000 
2
Lattice="3.3326079823596593 2.1142718582000712e-35 1.9943250698524455e-35 2.1142718582000712e-35 3.3326079823596593 6.077739050901654e-73 1.9943250698524455e-35 1.2155478101803306e-72 3.3326079823596593" Properties=species:S:1:pos:R:3:Z:I:1:forces:R:3 stress="0.02984698965237821 2.5048813634205576e-53 6.775269501834258e-39 2.5048813634205576e-53 0.029846989652378225 6.6449345742566735e-18 6.775269501834258e-39 6.6449345742566735e-18 0.02984698965237821" energy=-11.9808831103 Minim_Constant_Volume=T Minim_Hydrostatic_Strain=F pbc="T T T"
Ti       0.00000000       0.00000000       0.00000000       22       0.00000000       0.00000000       0.00000000 
Ti       1.66630399       1.66630399       1.66630399       22       0.00000000       0.00000000       0.00000000 
2
Lattice="3.358850070555067 2.130920353572356e-35 2.0100290634365706e-35 2.130920353572356e-35 3.358850070555067 6.125597234356375e-73 2.0100290634365706e-35 1.2251194468712747e-72 3.358850070555067" Properties=species:S:1:pos:R:3:Z:I:1:forces:R:3 stress="0.04301199198382682 8.535505622258519e-36 7.035884438218912e-54 8.535505622258519e-36 0.043011991983826776 -7.811666632844933e-18 7.035884438218912e-54 -7.811666632844933e-18 0.0430119919838268" energy=-11.9486388406 Minim_Constant_Volume=T Minim_Hydrostatic_Strain=F pbc="T T T"
Ti       0.00000000       0.00000000       0.00000000       22      -0.00000000       0.00000000      -0.00000000 
Ti       1.67942504       1.67942504       1.67942504       22       0.00000000      -0.00000000       0.00000000 
2
Lattice="3.3846883941829233 2.1473126927849515e-35 2.0254914331022367e-35 2.1473126927849515e-35 3.3846883941829233 6.172719064872925e-73 2.0254914331022367e-35 1.2345438129745848e-72 3.3846883941829233" Properties=species:S:1:pos:R:3:Z:I:1:forces:R:3 stress="0.05397326321212265 7.727624055436185e-53 -4.163377061837213e-53 7.727624055436185e-53 0.05397326321212265 3.524028562449952e-18 -4.163377061837213e-53 3.524028562449952e-18 0.05397326321212265" energy=-11.9057313908 Minim_Constant_Volume=T Minim_Hydrostatic_Strain=F pbc="T T T"
Ti       0.00000000       0.00000000       0.00000000       22       0.00000000       0.00000000       0.00000000 
Ti       1.69234420       1.69234420       1.69234420       22       0.00000000       0.00000000       0.00000000 
2
Lattice="3.4101381346955786 2.1634585072489445e-35 2.040721263851694e-35 2.1634585072489445e-35 3.4101381346955786 6.21913222914782e-73 2.040721263851694e-35 1.2438264458295636e-72 3.4101381346955786" Properties=species:S:1:pos:R:3:Z:I:1:forces:R:3 stress="0.06287437057683049 1.048365533651122e-52 -8.09418863152468e-37 1.048365533651122e-52 0.06287437057683049 6.802616687127376e-18 -8.09418863152468e-37 6.802616687127376e-18 0.06287437057683051" energy=-11.854127446 Minim_Constant_Volume=T Minim_Hydrostatic_Strain=F pbc="T T T"
Ti       0.00000000       0.00000000       0.00000000       22      -0.00000000      -0.00000000      -0.00000000 
Ti       1.70506907       1.70506907       1.70506907       22       0.00000000      -0.00000000      -0.00000000 
2
Lattice="3.435213580336233 2.1793668617060214e-35 2.055727106166058e-35 2.1793668617060214e-35 3.435213580336233 6.264862784915455e-73 2.055727106166058e-35 1.2529725569830907e-72 3.435213580336233" Properties=species:S:1:pos:R:3:Z:I:1:forces:R:3 stress="0.07102663488805838 -4.1615057664471858e-50 8.704257404499153e-35 -4.1615057664471858e-50 0.07102663488805833 -4.740490292341161e-17 8.704257404499153e-35 -4.740490292341161e-17 0.07102663488805831" energy=-11.7951417213 Minim_Constant_Volume=T Minim_Hydrostatic_Strain=F pbc="T T T"
Ti       0.00000000       0.00000000       0.00000000       22      -0.00000000      -0.00000000       0.00000000 
Ti       1.71760679       1.71760679       1.71760679       22       0.00000000       0.00000000       0.00000000 
