2
Lattice="3.2802147073713694 0.0 0.0 0.0 3.2802147073713694 0.0 0.0 0.0 3.2802147073713694" Properties=species:S:1:pos:R:3:Z:I:1:forces:R:3 stress="0.0006085178042929337 5.966431898398868e-36 0.0 5.966431898398868e-36 0.0006085178042929337 0.0 0.0 0.0 0.0006085178042929337" energy=-12.0085823239 Minim_Constant_Volume=T Minim_Hydrostatic_Strain=F pbc="T T T"
Ti      -0.00000000      -0.00000000       0.00000000       22       0.00000000       0.00000000       0.00000000 
Ti       1.64010735       1.64010735       1.64010735       22       0.00000000       0.00000000       0.00000000 
2
Lattice="3.2526485746189087 0.0 0.0 0.0 3.2526485746189087 0.0 0.0 0.0 3.2526485746189087" Properties=species:S:1:pos:R:3:Z:I:1:forces:R:3 stress="-0.016298855963376928 8.421029464436797e-53 -8.421029464436797e-53 8.421029464436797e-53 -0.016298855963376928 0.0 -8.421029464436797e-53 0.0 -0.016298855963376928" energy=-12.0019572497 Minim_Constant_Volume=T Minim_Hydrostatic_Strain=F pbc="T T T"
Ti      -0.00000000      -0.00000000       0.00000000       22       0.00000000       0.00000000       0.00000000 
Ti       1.62632429       1.62632429       1.62632429       22       0.00000000       0.00000000       0.00000000 
2
Lattice="3.2246071053325327 0.0 0.0 0.0 3.2246071053325327 0.0 0.0 0.0 3.2246071053325327" Properties=species:S:1:pos:R:3:Z:I:1:forces:R:3 stress="-0.03522791590606523 -9.878377084896352e-35 1.481756562734453e-34 -9.878377084896352e-35 -0.03522791590606523 0.0 1.481756562734453e-34 0.0 -0.03522791590606523" energy=-11.9793309341 Minim_Constant_Volume=T Minim_Hydrostatic_Strain=F pbc="T T T"
Ti      -0.00000000      -0.00000000       0.00000000       22       0.00000000      -0.00000000       0.00000000 
Ti       1.61230355       1.61230355       1.61230355       22       0.00000000       0.00000000      -0.00000000 
2
Lattice="3.1960692626221805 0.0 0.0 0.0 3.1960692626221805 0.0 0.0 0.0 3.1960692626221805" Properties=species:S:1:pos:R:3:Z:I:1:forces:R:3 stress="-0.055720322969997724 -1.6968780435573037e-33 -1.60889177463211e-33 -1.6968780435573037e-33 -0.0557203229699977 0.0 -1.60889177463211e-33 0.0 -0.0557203229699977" energy=-11.9393294711 Minim_Constant_Volume=T Minim_Hydrostatic_Strain=F pbc="T T T"
Ti      -0.00000000      -0.00000000       0.00000000       22       0.00000000       0.00000000       0.00000000 
Ti       1.59803463       1.59803463       1.59803463       22       0.00000000       0.00000000       0.00000000 
2
Lattice="3.167012479194319 0.0 0.0 0.0 3.167012479194319 0.0 0.0 0.0 3.167012479194319" Properties=species:S:1:pos:R:3:Z:I:1:forces:R:3 stress="-0.07904480152600701 2.4578247090673174e-33 0.0 2.4578247090673174e-33 -0.07904480152600701 0.0 0.0 0.0 -0.07904480152600701" energy=-11.8802049117 Minim_Constant_Volume=T Minim_Hydrostatic_Strain=F pbc="T T T"
Ti      -0.00000000      -0.00000000       0.00000000       22       0.00000000       0.00000000       0.00000000 
Ti       1.58350624       1.58350624       1.58350624       22       0.00000000       0.00000000       0.00000000 
2
Lattice="3.13741249995965 0.0 0.0 0.0 3.13741249995965 0.0 0.0 0.0 3.13741249995965" Properties=species:S:1:pos:R:3:Z:I:1:forces:R:3 stress="-0.10339158836749406 7.826313345144041e-35 7.826313345144041e-35 7.826313345144041e-35 -0.10339158836749392 0.0 7.826313345144041e-35 0.0 -0.10339158836749389" energy=-11.7997334531 Minim_Constant_Volume=T Minim_Hydrostatic_Strain=F pbc="T T T"
Ti      -0.00000000      -0.00000000       0.00000000       22       0.00000000       0.00000000      -0.00000000 
Ti       1.56870625       1.56870625       1.56870625       22      -0.00000000      -0.00000000       0.00000000 
2
Lattice="3.3073251492506186 0.0 0.0 0.0 3.3073251492506186 0.0 0.0 0.0 3.3073251492506186" Properties=species:S:1:pos:R:3:Z:I:1:forces:R:3 stress="0.01580957889292598 3.7561715444415095e-34 -1.8780857722207547e-34 3.7561715444415095e-34 0.01580957889292598 0.0 -1.8780857722207547e-34 0.0 0.01580957889292598" energy=-12.0013606165 Minim_Constant_Volume=T Minim_Hydrostatic_Strain=F pbc="T T T"
Ti      -0.00000000      -0.00000000       0.00000000       22       0.00000000       0.00000000       0.00000000 
Ti       1.65366257       1.65366257       1.65366257       22       0.00000000       0.00000000       0.00000000 
2
Lattice="3.3339982781427606 0.0 0.0 0.0 3.3339982781427606 0.0 0.0 0.0 3.3339982781427606" Properties=species:S:1:pos:R:3:Z:I:1:forces:R:3 stress="0.030826160052699152 -1.8481553202945643e-34 0.0 -1.8481553202945643e-34 0.030826160052699152 0.0 0.0 0.0 0.030826160052699135" energy=-11.9807285741 Minim_Constant_Volume=T Minim_Hydrostatic_Strain=F pbc="T T T"
Ti      -0.00000000      -0.00000000       0.00000000       22       0.00000000       0.00000000       0.00000000 
Ti       1.66699914       1.66699914       1.66699914       22       0.00000000       0.00000000       0.00000000 
2
Lattice="3.3602513139998047 0.0 0.0 0.0 3.3602513139998047 0.0 0.0 0.0 3.3602513139998047" Properties=species:S:1:pos:R:3:Z:I:1:forces:R:3 stress="0.04437648299331337 0.0 -2.8427961333695553e-36 0.0 0.044376482993313336 0.0 -2.8427961333695553e-36 0.0 0.044376482993313336" energy=-11.9473957016 Minim_Constant_Volume=T Minim_Hydrostatic_Strain=F pbc="T T T"
Ti      -0.00000000      -0.00000000       0.00000000       22       0.00000000      -0.00000000      -0.00000000 
Ti       1.68012566       1.68012566       1.68012566       22       0.00000000      -0.00000000       0.00000000 
2
Lattice="3.386100416846991 0.0 0.0 0.0 3.386100416846991 0.0 0.0 0.0 3.386100416846991" Properties=species:S:1:pos:R:3:Z:I:1:forces:R:3 stress="0.05549901193757618 -2.7995586404280614e-36 2.7995586404280614e-36 -2.7995586404280614e-36 0.05549901193757616 0.0 2.7995586404280614e-36 0.0 0.05549901193757618" energy=-11.9031429428 Minim_Constant_Volume=T Minim_Hydrostatic_Strain=F pbc="T T T"
Ti      -0.00000000      -0.00000000       0.00000000       22       0.00000000       0.00000000       0.00000000 
Ti       1.69305021       1.69305021       1.69305021       22       0.00000000       0.00000000       0.00000000 
2
Lattice="3.4115607744700607 0.0 0.0 0.0 3.4115607744700607 0.0 0.0 0.0 3.4115607744700607" Properties=species:S:1:pos:R:3:Z:I:1:forces:R:3 stress="0.06442262423956757 5.295222815232148e-34 -7.060297086976197e-34 5.295222815232148e-34 0.06442262423956759 0.0 -7.060297086976197e-34 0.0 0.0644226242395676" energy=-11.8501163421 Minim_Constant_Volume=T Minim_Hydrostatic_Strain=F pbc="T T T"
Ti      -0.00000000      -0.00000000       0.00000000       22      -0.00000000      -0.00000000       0.00000000 
Ti       1.70578039       1.70578039       1.70578039       22       0.00000000       0.00000000       0.00000000 
2
Lattice="3.436646681072976 0.0 0.0 0.0 3.436646681072976 0.0 0.0 0.0 3.436646681072976" Properties=species:S:1:pos:R:3:Z:I:1:forces:R:3 stress="0.07274305662273023 1.7393998941669769e-34 2.4351598518337677e-33 1.7393998941669769e-34 0.07274305662273021 0.0 2.4351598518337677e-33 0.0 0.07274305662273021" energy=-11.7896405655 Minim_Constant_Volume=T Minim_Hydrostatic_Strain=F pbc="T T T"
Ti      -0.00000000      -0.00000000       0.00000000       22       0.00000000      -0.00000000       0.00000000 
Ti       1.71832334       1.71832334       1.71832334       22      -0.00000000       0.00000000      -0.00000000 
