2
Lattice="3.1789413599694263 5.549928850103188e-26 -2.860952455808541e-25 5.549928850103188e-26 3.1789413599694263 -9.213582367090357e-19 -2.860952455808541e-25 -9.213582367090357e-19 3.1789413599694263" Properties=species:S:1:pos:R:3:Z:I:1:forces:R:3 stress="-0.0002293625420713124 -2.6193002932701088e-24 -3.546969147136605e-24 -2.6193002932701088e-24 -0.00022936254207131244 -4.784130423411644e-20 -3.546969147136605e-24 -4.784130423411644e-20 -0.00022936254207131244" energy=-22.3937840617 Minim_Constant_Volume=T Minim_Hydrostatic_Strain=F pbc="T T T"
W      -0.00000000      -0.00000000       0.00000000       74       0.00000000       0.00000000       0.00000000 
W       1.58947068       1.58947068       1.58947068       74       0.00000000       0.00000000       0.00000000 
2
Lattice="3.1522263039871823 5.5032885874689e-26 -2.8369097018333e-25 5.5032885874689e-26 3.1522263039871823 -9.136153644486868e-19 -2.8369097018333e-25 -9.136153644486868e-19 3.1522263039871823" Properties=species:S:1:pos:R:3:Z:I:1:forces:R:3 stress="-0.05356615057106131 -2.219904551921721e-25 3.032141173855978e-41 -2.219904551921721e-25 -0.05356615057106138 3.280621335238943e-17 3.032141173855978e-41 3.280621335238943e-17 -0.0535661505710614" energy=-22.3727801209 Minim_Constant_Volume=T Minim_Hydrostatic_Strain=F pbc="T T T"
W      -0.00000000      -0.00000000       0.00000000       74       0.00000000       0.00000000       0.00000000 
W       1.57611315       1.57611315       1.57611315       74       0.00000000       0.00000000       0.00000000 
2
Lattice="3.125050587010958 5.455844083594806e-26 -2.812452366696349e-25 5.455844083594806e-26 3.125050587010958 -9.057389779919203e-19 -2.812452366696349e-25 -9.057389779919203e-19 3.125050587010958" Properties=species:S:1:pos:R:3:Z:I:1:forces:R:3 stress="-0.11433515645875655 9.034725596230205e-25 -1.8069451192460407e-24 9.034725596230205e-25 -0.11433515645875655 1.8758196054858005e-17 -1.8069451192460407e-24 1.8758196054858005e-17 -0.11433515645875655" energy=-22.3058511745 Minim_Constant_Volume=T Minim_Hydrostatic_Strain=F pbc="T T T"
W      -0.00000000      -0.00000000       0.00000000       74       0.00000000       0.00000000       0.00000000 
W       1.56252529       1.56252529       1.56252529       74      -0.00000000       0.00000000      -0.00000000 
2
Lattice="3.0973938216436268 5.407559745309886e-26 -2.7875621023480476e-25 5.407559745309886e-26 3.0973938216436268 -8.97723168423113e-19 -2.7875621023480476e-25 -8.97723168423113e-19 3.0973938216436268" Properties=species:S:1:pos:R:3:Z:I:1:forces:R:3 stress="-0.18015751746836178 -1.839357767590409e-24 -7.357431070361632e-24 -1.839357767590409e-24 -0.1801575174683617 -4.232126424501309e-18 -7.357431070361632e-24 -4.232126424501309e-18 -0.18015751746836164" energy=-22.187322745 Minim_Constant_Volume=T Minim_Hydrostatic_Strain=F pbc="T T T"
W      -0.00000000      -0.00000000       0.00000000       74      -0.00000000       0.00000000      -0.00000000 
W       1.54869691       1.54869691       1.54869691       74       0.00000000      -0.00000000       0.00000000 
2
Lattice="3.069234137334265 5.358397390091158e-26 -2.762219225944553e-25 5.358397390091158e-26 3.069234137334265 -8.895615969615349e-19 -2.762219225944553e-25 -8.895615969615349e-19 3.069234137334265" Properties=species:S:1:pos:R:3:Z:I:1:forces:R:3 stress="-0.24730516349650217 -1.4049481268037231e-23 3.746528338143261e-24 -1.4049481268037231e-23 -0.24730516349650192 -4.805409486950163e-18 3.746528338143261e-24 -4.805409486950163e-18 -0.24730516349650197" energy=-22.0163664251 Minim_Constant_Volume=T Minim_Hydrostatic_Strain=F pbc="T T T"
W      -0.00000000      -0.00000000       0.00000000       74      -0.00000000      -0.00000000       0.00000000 
W       1.53461707       1.53461707       1.53461707       74       0.00000000      -0.00000000      -0.00000000 
2
Lattice="3.040548027845191 5.308315979765249e-26 -2.7364025825727016e-25 5.308315979765249e-26 3.040548027845191 -8.812474507524492e-19 -2.7364025825727016e-25 -8.812474507524492e-19 3.040548027845191" Properties=species:S:1:pos:R:3:Z:I:1:forces:R:3 stress="-0.31271185740474433 -5.726332809189994e-24 -1.908777603063336e-23 -5.726332809189994e-24 -0.31271185740474394 1.3031105642112074e-16 -1.908777603063336e-23 1.3031105642112074e-16 -0.31271185740474416" energy=-21.7908528772 Minim_Constant_Volume=T Minim_Hydrostatic_Strain=F pbc="T T T"
W      -0.00000000      -0.00000000       0.00000000       74       0.00000000      -0.00000000       0.00000000 
W       1.52027401       1.52027401       1.52027401       74      -0.00000000       0.00000000       0.00000000 
2
Lattice="3.205214794078273 5.595798110791085e-26 -2.8845977632630176e-25 5.595798110791085e-26 3.205214794078273 -9.289731129151985e-19 -2.8845977632630176e-25 -9.289731129151985e-19 3.205214794078273" Properties=species:S:1:pos:R:3:Z:I:1:forces:R:3 stress="0.04596667538283687 -3.0918420115238965e-23 -1.0306140038412986e-23 -3.0918420115238965e-23 0.04596667538283686 -7.336948287598215e-18 -1.0306140038412986e-23 -7.336948287598215e-18 0.04596667538283686" energy=-22.3753713632 Minim_Constant_Volume=T Minim_Hydrostatic_Strain=F pbc="T T T"
W      -0.00000000      -0.00000000       0.00000000       74       0.00000000       0.00000000       0.00000000 
W       1.60260740       1.60260740       1.60260740       74       0.00000000       0.00000000       0.00000000 
2
Lattice="3.2310644168009808 5.64092746382653e-26 -2.907861653104309e-25 5.64092746382653e-26 3.2310644168009808 -9.364651551124213e-19 -2.907861653104309e-25 -9.364651551124213e-19 3.2310644168009808" Properties=species:S:1:pos:R:3:Z:I:1:forces:R:3 stress="0.08370205763893013 2.112894663082393e-24 8.45157865232957e-25 2.112894663082393e-24 0.08370205763893025 -3.235932159620593e-17 8.45157865232957e-25 -3.235932159620593e-17 0.08370205763893024" energy=-22.3224120383 Minim_Constant_Volume=T Minim_Hydrostatic_Strain=F pbc="T T T"
W      -0.00000000      -0.00000000       0.00000000       74       0.00000000       0.00000000       0.00000000 
W       1.61553221       1.61553221       1.61553221       74       0.00000000       0.00000000       0.00000000 
2
Lattice="3.2565069164407667 5.685346044347609e-26 -2.930759144307813e-25 5.685346044347609e-26 3.2565069164407667 -9.43839200101351e-19 -2.930759144307813e-25 -9.43839200101351e-19 3.2565069164407667" Properties=species:S:1:pos:R:3:Z:I:1:forces:R:3 stress="0.11392308117033031 1.6640066453207364e-24 3.848015367304206e-24 1.6640066453207364e-24 0.1139230811703304 -1.1326784842024153e-16 3.848015367304206e-24 -1.1326784842024153e-16 0.11392308117033034" energy=-22.2425330434 Minim_Constant_Volume=T Minim_Hydrostatic_Strain=F pbc="T T T"
W      -0.00000000      -0.00000000       0.00000000       74       0.00000000       0.00000000       0.00000000 
W       1.62825346       1.62825346       1.62825346       74       0.00000000       0.00000000       0.00000000 
2
Lattice="3.2815579540982602 5.729081194159143e-26 -2.953304331397218e-25 5.729081194159143e-26 3.2815579540982602 -9.510997869666782e-19 -2.953304331397218e-25 -9.510997869666782e-19 3.2815579540982602" Properties=species:S:1:pos:R:3:Z:I:1:forces:R:3 stress="0.13961057720815004 1.6386979449404628e-24 -5.298331410884773e-40 1.6386979449404628e-24 0.13961057720815012 -5.404276610895904e-17 -5.298331410884773e-40 -5.404276610895904e-17 0.13961057720815012" energy=-22.1406521611 Minim_Constant_Volume=T Minim_Hydrostatic_Strain=F pbc="T T T"
W      -0.00000000      -0.00000000       0.00000000       74       0.00000000       0.00000000       0.00000000 
W       1.64077898       1.64077898       1.64077898       74       0.00000000       0.00000000       0.00000000 
2
Lattice="3.306232248651512 5.772158610094349e-26 -2.9755104609239815e-25 5.772158610094349e-26 3.306232248651512 -9.582511817070461e-19 -2.9755104609239815e-25 -9.582511817070461e-19 3.306232248651512" Properties=species:S:1:pos:R:3:Z:I:1:forces:R:3 stress="0.16434259283332794 -4.842990371330007e-24 -4.842990371330011e-24 -4.842990371330007e-24 0.16434259283332783 2.4760565919280996e-17 -4.842990371330011e-24 2.4760565919280996e-17 0.16434259283332794" energy=-22.0187446374 Minim_Constant_Volume=T Minim_Hydrostatic_Strain=F pbc="T T T"
W      -0.00000000      -0.00000000       0.00000000       74       0.00000000      -0.00000000       0.00000000 
W       1.65311612       1.65311612       1.65311612       74       0.00000000      -0.00000000       0.00000000 
2
Lattice="3.330543652985237 5.814602477099044e-26 -2.9973900000713772e-25 5.814602477099044e-26 3.330543652985237 -9.652973993287063e-19 -2.9973900000713772e-25 -9.652973993287063e-19 3.330543652985237" Properties=species:S:1:pos:R:3:Z:I:1:forces:R:3 stress="0.19325116025858666 4.772545311093085e-24 7.158817966639628e-24 4.772545311093085e-24 0.1932511602585867 -1.3398270518701118e-16 7.158817966639628e-24 -1.3398270518701118e-16 0.1932511602585867" energy=-21.8754049239 Minim_Constant_Volume=T Minim_Hydrostatic_Strain=F pbc="T T T"
W      -0.00000000      -0.00000000       0.00000000       74       0.00000000       0.00000000       0.00000000 
W       1.66527183       1.66527183       1.66527183       74       0.00000000       0.00000000       0.00000000 
