2
Lattice="3.1800609526947103 -1.2881721755505444e-36 -4.99734063423267e-35 -1.2881721755505444e-36 3.1800609526947103 -2.207465848304166e-18 -4.99734063423267e-35 -2.207465848304166e-18 3.1800609526947103" Properties=species:S:1:pos:R:3:Z:I:1:forces:R:3 stress="-0.00037455211011716734 1.1996909614375422e-49 1.6251307493058703e-33 1.1996909614375422e-49 -0.00037455211011716777 2.897191243247593e-20 1.6251307493058703e-33 2.897191243247593e-20 -0.00037455211011716794" energy=-22.3897559846 Minim_Constant_Volume=T Minim_Hydrostatic_Strain=F pbc="T T T"
W       0.00000000      -0.00000000      -0.00000000       74      -0.00000000      -0.00000000       0.00000000 
W       1.59003048       1.59003048       1.59003048       74      -0.00000000       0.00000000      -0.00000000 
2
Lattice="3.153336487925406 -1.2773466874751895e-36 -4.955344189602703e-35 -1.2773466874751895e-36 3.153336487925406 -2.188914838065681e-18 -4.955344189602703e-35 -2.188914838065681e-18 3.153336487925406" Properties=species:S:1:pos:R:3:Z:I:1:forces:R:3 stress="-0.05128443256488017 1.2912448258801194e-35 1.9368672388201785e-35 1.2912448258801194e-35 -0.05128443256488013 -1.8234736135127665e-17 1.9368672388201785e-35 -1.8234736135127665e-17 -0.05128443256488011" energy=-22.3694407693 Minim_Constant_Volume=T Minim_Hydrostatic_Strain=F pbc="T T T"
W       0.00000000      -0.00000000      -0.00000000       74       0.00000000       0.00000000       0.00000000 
W       1.57666824       1.57666824       1.57666824       74       0.00000000       0.00000000       0.00000000 
2
Lattice="3.1261511999217277 -1.2663345301261325e-36 -4.912623579395851e-35 -1.2663345301261325e-36 3.1261511999217277 -2.1700439435334293e-18 -4.912623579395851e-35 -2.1700439435334293e-18 3.1261511999217277" Properties=species:S:1:pos:R:3:Z:I:1:forces:R:3 stress="-0.1092969836195449 5.780720137813079e-34 -8.408320200455386e-34 5.780720137813079e-34 -0.10929698361954505 5.738426959011263e-17 -8.408320200455386e-34 5.738426959011263e-17 -0.10929698361954504" energy=-22.305387393 Minim_Constant_Volume=T Minim_Hydrostatic_Strain=F pbc="T T T"
W       0.00000000      -0.00000000      -0.00000000       74       0.00000000      -0.00000000      -0.00000000 
W       1.56307560       1.56307560       1.56307560       74       0.00000000       0.00000000       0.00000000 
2
Lattice="3.0984846941063027 -1.25512744211232e-36 -4.869146754336414e-35 -1.25512744211232e-36 3.0984846941063027 -2.1508390076413335e-18 -4.869146754336414e-35 -2.1508390076413335e-18 3.0984846941063027" Properties=species:S:1:pos:R:3:Z:I:1:forces:R:3 stress="-0.17506888536838122 2.674733468030735e-35 -5.349466936061469e-35 2.674733468030735e-35 -0.17506888536838114 1.4114966011840276e-17 -5.349466936061469e-35 1.4114966011840276e-17 -0.17506888536838114" energy=-22.1916163459 Minim_Constant_Volume=T Minim_Hydrostatic_Strain=F pbc="T T T"
W       0.00000000      -0.00000000      -0.00000000       74       0.00000000       0.00000000       0.00000000 
W       1.54924235       1.54924235       1.54924235       74       0.00000000       0.00000000       0.00000000 
2
Lattice="3.0703150922256084 -1.2437165610383903e-36 -4.824879333610008e-35 -1.2437165610383903e-36 3.0703150922256084 -2.131284843417134e-18 -4.824879333610008e-35 -2.131284843417134e-18 3.0703150922256084" Properties=species:S:1:pos:R:3:Z:I:1:forces:R:3 stress="-0.2493560867796796 1.3699195441563573e-35 2.0431776914744153e-52 1.3699195441563573e-35 -0.24935608677967938 -4.24338567606214e-17 2.0431776914744153e-52 -4.24338567606214e-17 -0.24935608677967966" energy=-22.0216055605 Minim_Constant_Volume=T Minim_Hydrostatic_Strain=F pbc="T T T"
W       0.00000000      -0.00000000      -0.00000000       74      -0.00000000       0.00000000      -0.00000000 
W       1.53515755       1.53515755       1.53515755       74       0.00000000      -0.00000000       0.00000000 
2
Lattice="3.0416188797632913 -1.2320923616951923e-36 -4.7797843650796114e-35 -1.2320923616951923e-36 3.0416188797632913 -2.111365128063072e-18 -4.7797843650796114e-35 -2.111365128063072e-18 3.0416188797632913" Properties=species:S:1:pos:R:3:Z:I:1:forces:R:3 stress="-0.33339793196479006 -1.3878407528702937e-34 -1.2932436820729773e-50 -1.3878407528702937e-34 -0.33339793196479006 2.8635081220289107e-17 -1.2932436820729773e-50 2.8635081220289107e-17 -0.3333979319647898" energy=-21.7880521238 Minim_Constant_Volume=T Minim_Hydrostatic_Strain=F pbc="T T T"
W       0.00000000      -0.00000000      -0.00000000       74       0.00000000       0.00000000       0.00000000 
W       1.52080944       1.52080944       1.52080944       74       0.00000000       0.00000000       0.00000000 
2
Lattice="3.20634364005562 -1.298818709393969e-36 -5.03864284305172e-35 -1.298818709393969e-36 3.20634364005562 -2.2257101950679286e-18 -5.03864284305172e-35 -2.2257101950679286e-18 3.20634364005562" Properties=species:S:1:pos:R:3:Z:I:1:forces:R:3 stress="0.04422352730110334 -3.9964931488838064e-33 6.39438903821409e-33 -3.9964931488838064e-33 0.04422352730110335 -2.280019508705377e-17 6.39438903821409e-33 -2.280019508705377e-17 0.04422352730110335" energy=-22.3717352191 Minim_Constant_Volume=T Minim_Hydrostatic_Strain=F pbc="T T T"
W       0.00000000      -0.00000000      -0.00000000       74       0.00000000       0.00000000       0.00000000 
W       1.60317182       1.60317182       1.60317182       74       0.00000000       0.00000000       0.00000000 
2
Lattice="3.232202366768076 -1.3092935061798372e-36 -5.079278814396916e-35 -1.3092935061798372e-36 3.232202366768076 -2.2436602460095644e-18 -5.079278814396916e-35 -2.2436602460095644e-18 3.232202366768076" Properties=species:S:1:pos:R:3:Z:I:1:forces:R:3 stress="0.08335954627665622 1.2029992522500027e-35 -4.417488098391872e-51 1.2029992522500027e-35 0.08335954627665619 -4.3142668690124006e-17 -4.417488098391872e-51 -4.3142668690124006e-17 0.08335954627665619" energy=-22.3201085552 Minim_Constant_Volume=T Minim_Hydrostatic_Strain=F pbc="T T T"
W       0.00000000      -0.00000000      -0.00000000       74      -0.00000000      -0.00000000       0.00000000 
W       1.61610118       1.61610118       1.61610118       74       0.00000000       0.00000000      -0.00000000 
2
Lattice="3.257653827012757 -1.3196033283505559e-36 -5.119274782516182e-35 -1.3196033283505559e-36 3.257653827012757 -2.2613275895339067e-18 -5.119274782516182e-35 -2.2613275895339067e-18 3.257653827012757" Properties=species:S:1:pos:R:3:Z:I:1:forces:R:3 stress="0.11774677678127062 -1.8148077322236454e-34 -1.935794914371888e-34 -1.8148077322236454e-34 0.11774677678127066 1.604651091408532e-17 -1.935794914371888e-34 1.604651091408532e-17 0.11774677678127062" energy=-22.2389665984 Minim_Constant_Volume=T Minim_Hydrostatic_Strain=F pbc="T T T"
W       0.00000000      -0.00000000      -0.00000000       74       0.00000000       0.00000000       0.00000000 
W       1.62882691       1.62882691       1.62882691       74       0.00000000       0.00000000       0.00000000 
2
Lattice="3.282713687405981 -1.3297545221049957e-36 -5.158655366880495e-35 -1.3297545221049957e-36 3.282713687405981 -2.2787231007534123e-18 -5.158655366880495e-35 -2.2787231007534123e-18 3.282713687405981" Properties=species:S:1:pos:R:3:Z:I:1:forces:R:3 stress="0.1478845561846851 -2.382940564666413e-35 -9.531762258665658e-35 -2.382940564666413e-35 0.14788455618468507 -4.494754799248289e-17 -9.531762258665658e-35 -4.494754799248289e-17 0.14788455618468507" energy=-22.1319135925 Minim_Constant_Volume=T Minim_Hydrostatic_Strain=F pbc="T T T"
W       0.00000000      -0.00000000      -0.00000000       74       0.00000000       0.00000000       0.00000000 
W       1.64135684       1.64135684       1.64135684       74       0.00000000       0.00000000       0.00000000 
2
Lattice="3.307396672009647 -1.3397530518341325e-36 -5.197443705773659e-35 -1.3397530518341325e-36 3.307396672009647 -2.2958570004985224e-18 -5.197443705773659e-35 -2.2958570004985224e-18 3.307396672009647" Properties=species:S:1:pos:R:3:Z:I:1:forces:R:3 stress="0.17414027381003264 -1.5024036364334934e-33 -3.7560090910837297e-34 -1.5024036364334934e-33 0.1741402738100327 -5.351903946784423e-17 -3.7560090910837297e-34 -5.351903946784423e-17 0.17414027381003255" energy=-22.0022138552 Minim_Constant_Volume=T Minim_Hydrostatic_Strain=F pbc="T T T"
W       0.00000000      -0.00000000      -0.00000000       74       0.00000000       0.00000000      -0.00000000 
W       1.65369834       1.65369834       1.65369834       74       0.00000000       0.00000000      -0.00000000 
2
Lattice="3.331716638587324 -1.3496045310106986e-36 -5.235661576125743e-35 -1.3496045310106986e-36 3.331716638587324 -2.312738908251463e-18 -5.235661576125743e-35 -2.312738908251463e-18 3.331716638587324" Properties=species:S:1:pos:R:3:Z:I:1:forces:R:3 stress="0.196860942058884 -2.2208250111988318e-33 -1.6656187583991238e-33 -2.2208250111988318e-33 0.19686094205888394 -5.816603188103902e-17 -1.6656187583991238e-33 -5.816603188103902e-17 0.19686094205888394" energy=-21.8528497807 Minim_Constant_Volume=T Minim_Hydrostatic_Strain=F pbc="T T T"
W       0.00000000      -0.00000000      -0.00000000       74       0.00000000       0.00000000       0.00000000 
W       1.66585832       1.66585832       1.66585832       74       0.00000000       0.00000000       0.00000000 
