2
Lattice="3.1806076909483876 -2.2640286644352743e-35 -3.4831210222081156e-35 -2.2640286644352743e-35 3.1806076909483876 0.0 -3.4831210222081156e-35 0.0 3.1806076909483876" Properties=species:S:1:pos:R:3:Z:I:1:forces:R:3 stress="0.0006065396391663713 1.269214931530078e-35 1.2691969420023074e-35 1.269214931530078e-35 0.0006065396391663705 -1.43528926014236e-20 1.2691969420023074e-35 -1.43528926014236e-20 0.0006065396391663705" energy=-22.3897540569 Minim_Constant_Volume=T Minim_Hydrostatic_Strain=F pbc="T T T"
W       0.00000000      -0.00000000      -0.00000000       74       0.00000000      -0.00000000      -0.00000000 
W       1.59030385       1.59030385       1.59030385       74      -0.00000000       0.00000000       0.00000000 
2
Lattice="3.1538786315227494 -2.2450023139409152e-35 -3.453849713755255e-35 -2.2450023139409152e-35 3.1538786315227494 0.0 -3.453849713755255e-35 0.0 3.1538786315227494" Properties=species:S:1:pos:R:3:Z:I:1:forces:R:3 stress="-0.050192554601088256 8.261126020661838e-34 -1.652225204132368e-33 8.261126020661838e-34 -0.05019255460108823 5.0771356040282336e-20 -1.652225204132368e-33 5.0771356040282336e-20 -0.05019255460108823" energy=-22.3702614731 Minim_Constant_Volume=T Minim_Hydrostatic_Strain=F pbc="T T T"
W       0.00000000      -0.00000000      -0.00000000       74       0.00000000      -0.00000000      -0.00000000 
W       1.57693932       1.57693932       1.57693932       74      -0.00000000       0.00000000       0.00000000 
2
Lattice="3.1266886696347935 -2.2256478826244017e-35 -3.424073665576004e-35 -2.2256478826244017e-35 3.1266886696347935 0.0 -3.424073665576004e-35 0.0 3.1266886696347935" Properties=species:S:1:pos:R:3:Z:I:1:forces:R:3 stress="-0.1080872492426724 -4.26838227553632e-35 -5.253393569890854e-35 -4.26838227553632e-35 -0.1080872492426724 -3.753527833888443e-17 -5.253393569890854e-35 -3.753527833888443e-17 -0.10808724924267243" energy=-22.307100431 Minim_Constant_Volume=T Minim_Hydrostatic_Strain=F pbc="T T T"
W       0.00000000      -0.00000000      -0.00000000       74       0.00000000       0.00000000       0.00000000 
W       1.56334433       1.56334433       1.56334433       74       0.00000000       0.00000000       0.00000000 
2
Lattice="3.099017407200769 -2.2059508506672594e-35 -3.3937705394880925e-35 -2.2059508506672594e-35 3.099017407200769 0.0 -3.3937705394880925e-35 0.0 3.099017407200769" Properties=species:S:1:pos:R:3:Z:I:1:forces:R:3 stress="-0.17373672038198198 6.844963808013039e-33 2.5668614280048898e-33 6.844963808013039e-33 -0.17373672038198193 2.9553966153176453e-18 2.5668614280048898e-33 2.9553966153176453e-18 -0.17373672038198193" energy=-22.1942926828 Minim_Constant_Volume=T Minim_Hydrostatic_Strain=F pbc="T T T"
W       0.00000000      -0.00000000      -0.00000000       74      -0.00000000       0.00000000      -0.00000000 
W       1.54950870       1.54950870       1.54950870       74      -0.00000000       0.00000000       0.00000000 
2
Lattice="3.070842962205692 -2.1858956419551186e-35 -3.3629163722386454e-35 -2.1858956419551186e-35 3.070842962205692 0.0 -3.3629163722386454e-35 0.0 3.070842962205692" Properties=species:S:1:pos:R:3:Z:I:1:forces:R:3 stress="-0.24789239767889898 -9.803169395817237e-34 -3.2677231319390772e-34 -9.803169395817237e-34 -0.24789239767889884 5.2435582380619247e-17 -3.2677231319390772e-34 5.2435582380619247e-17 -0.24789239767889887" energy=-22.0253177636 Minim_Constant_Volume=T Minim_Hydrostatic_Strain=F pbc="T T T"
W       0.00000000      -0.00000000      -0.00000000       74      -0.00000000      -0.00000000       0.00000000 
W       1.53542148       1.53542148       1.53542148       74      -0.00000000       0.00000000       0.00000000 
2
Lattice="3.042141816090428 -2.165465515444381e-35 -3.331485408375972e-35 -2.165465515444381e-35 3.042141816090428 0.0 -3.331485408375972e-35 0.0 3.042141816090428" Properties=species:S:1:pos:R:3:Z:I:1:forces:R:3 stress="-0.33178411509405664 -6.936818306958781e-35 -1.3873636613917538e-35 -6.936818306958781e-35 -0.33178411509405653 1.4784727800110202e-17 -1.3873636613917538e-35 1.4784727800110202e-17 -0.33178411509405664" energy=-21.7928800927 Minim_Constant_Volume=T Minim_Hydrostatic_Strain=F pbc="T T T"
W       0.00000000      -0.00000000      -0.00000000       74       0.00000000       0.00000000       0.00000000 
W       1.52107091       1.52107091       1.52107091       74       0.00000000       0.00000000       0.00000000 
2
Lattice="3.2068948970121784 -2.2827404936890712e-35 -3.5119084518293413e-35 -2.2827404936890712e-35 3.2068948970121784 0.0 -3.5119084518293413e-35 0.0 3.2068948970121784" Properties=species:S:1:pos:R:3:Z:I:1:forces:R:3 stress="0.04510494908686545 -4.99389911657312e-35 -9.987798233146244e-35 -4.99389911657312e-35 0.045104949086865416 -1.1812242949859851e-18 -9.987798233146244e-35 -1.1812242949859851e-18 0.045104949086865465" energy=-22.3709757119 Minim_Constant_Volume=T Minim_Hydrostatic_Strain=F pbc="T T T"
W       0.00000000      -0.00000000      -0.00000000       74       0.00000000       0.00000000       0.00000000 
W       1.60344745       1.60344745       1.60344745       74       0.00000000       0.00000000       0.00000000 
2
Lattice="3.232758069537245 -2.3011504862564112e-35 -3.540231517317557e-35 -2.3011504862564112e-35 3.232758069537245 0.0 -3.540231517317557e-35 0.0 3.232758069537245" Properties=species:S:1:pos:R:3:Z:I:1:forces:R:3 stress="0.08415275851307549 -2.125660655624055e-37 -4.562017630471597e-53 -2.125660655624055e-37 0.08415275851307549 -2.7618748899749228e-17 -4.562017630471597e-53 -2.7618748899749228e-17 0.08415275851307549" energy=-22.3186495619 Minim_Constant_Volume=T Minim_Hydrostatic_Strain=F pbc="T T T"
W       0.00000000      -0.00000000      -0.00000000       74       0.00000000       0.00000000       0.00000000 
W       1.61637903       1.61637903       1.61637903       74       0.00000000       0.00000000       0.00000000 
2
Lattice="3.258213905574445 -2.3192705274766476e-35 -3.5681085038102285e-35 -2.3192705274766476e-35 3.258213905574445 0.0 -3.5681085038102285e-35 0.0 3.258213905574445" Properties=species:S:1:pos:R:3:Z:I:1:forces:R:3 stress="0.11845989018957462 2.376024988889508e-35 2.4189118190903164e-35 2.376024988889508e-35 0.11845989018957458 -3.60370157255433e-17 2.4189118190903164e-35 -3.60370157255433e-17 0.11845989018957462" energy=-22.2368603117 Minim_Constant_Volume=T Minim_Hydrostatic_Strain=F pbc="T T T"
W       0.00000000      -0.00000000      -0.00000000       74       0.00000000       0.00000000       0.00000000 
W       1.62910695       1.62910695       1.62910695       74      -0.00000000       0.00000000      -0.00000000 
2
Lattice="3.283278074433611 -2.3371117711197698e-35 -3.595556570953493e-35 -2.3371117711197698e-35 3.283278074433611 0.0 -3.595556570953493e-35 0.0 3.283278074433611" Properties=species:S:1:pos:R:3:Z:I:1:forces:R:3 stress="0.1485222837479686 2.382121392412746e-35 -2.382121392412745e-35 2.382121392412746e-35 0.1485222837479685 -6.889914034919231e-17 -2.382121392412745e-35 -6.889914034919231e-17 0.1485222837479686" energy=-22.129209026 Minim_Constant_Volume=T Minim_Hydrostatic_Strain=F pbc="T T T"
W       0.00000000      -0.00000000      -0.00000000       74       0.00000000       0.00000000       0.00000000 
W       1.64163904       1.64163904       1.64163904       74       0.00000000       0.00000000       0.00000000 
2
Lattice="3.3079653027081055 -2.354684699908811e-35 -3.622591846013557e-35 -2.354684699908811e-35 3.3079653027081055 0.0 -3.622591846013557e-35 0.0 3.3079653027081055" Properties=species:S:1:pos:R:3:Z:I:1:forces:R:3 stress="0.17470642068449851 -2.7707116231822433e-36 1.3107527913035023e-51 -2.7707116231822433e-36 0.1747064206844984 -8.44988505614587e-17 1.3107527913035023e-51 -8.44988505614587e-17 0.17470642068449843" energy=-21.9989584592 Minim_Constant_Volume=T Minim_Hydrostatic_Strain=F pbc="T T T"
W       0.00000000      -0.00000000      -0.00000000       74       0.00000000       0.00000000       0.00000000 
W       1.65398265       1.65398265       1.65398265       74       0.00000000       0.00000000       0.00000000 
2
Lattice="3.332289450544021 -2.371999179809994e-35 -3.6492295073999916e-35 -2.371999179809994e-35 3.332289450544021 0.0 -3.6492295073999916e-35 0.0 3.332289450544021" Properties=species:S:1:pos:R:3:Z:I:1:forces:R:3 stress="0.19736007742649683 -7.400205228817911e-34 -7.400205228817911e-34 -7.400205228817911e-34 0.19736007742649683 -2.4145662124215817e-18 -7.400205228817911e-34 -2.4145662124215817e-18 0.19736007742649683" energy=-21.849089206 Minim_Constant_Volume=T Minim_Hydrostatic_Strain=F pbc="T T T"
W       0.00000000      -0.00000000      -0.00000000       74      -0.00000000       0.00000000      -0.00000000 
W       1.66614473       1.66614473       1.66614473       74       0.00000000      -0.00000000       0.00000000 
