2
Lattice="2.9180386137717815 2.355794206701811e-17 7.220002391774971e-35 -1.45901930688589 2.5270955687502914 5.634218922559558e-34 1.1285048534987822e-34 1.0778131354200664e-33 5.0031269298297945" Properties=species:S:1:pos:R:3:Z:I:1:forces:R:3 stress="1.0059614416782896e-05 -2.541098841762901e-21 9.005685723189372e-33 -2.541098841762901e-21 1.0059614416782886e-05 5.1994399093081865e-33 9.005685723189372e-33 5.1994399093081865e-33 7.793085702855563e-06" energy=-12.0853397909 Minim_Constant_Volume=T Minim_Hydrostatic_Strain=F pbc="T T T"
Ti      -0.00000000       0.00000000       0.00000000       22      -0.00000000       0.00000000      -0.00000000 
Ti       0.00000000       1.68473038       2.50156346       22       0.00000000      -0.00000000       0.00000000 
2
Lattice="2.898196252816469 1.1657449538676094e-17 -1.5397574802711024e-32 -1.4490981264082339 2.5099115800919307 -9.238690600823433e-32 -2.641020219812018e-32 -1.9825165072465776e-31 4.945033208010157" Properties=species:S:1:pos:R:3:Z:I:1:forces:R:3 stress="-0.02136824280383269 3.469446951953614e-18 -1.710086631662579e-32 3.469446951953614e-18 -0.021368242803832677 -3.9823373040781037e-32 -1.710086631662579e-32 -3.9823373040781037e-32 -0.021323033189120565" energy=-12.0754759057 Minim_Constant_Volume=T Minim_Hydrostatic_Strain=F pbc="T T T"
Ti      -0.00000000       0.00000000      -0.00000000       22       0.00000000      -0.00000000      -0.00000000 
Ti       0.00000000       1.67327439       2.47251660       22      -0.00000000       0.00000000       0.00000000 
2
Lattice="2.8765852422093294 2.137310007038587e-17 -2.2013409499095957e-32 -1.438292621104664 2.4911958959046925 -9.99165124043415e-32 -3.77889770698414e-32 -2.2028312948081913e-31 4.8909239347609095" Properties=species:S:1:pos:R:3:Z:I:1:forces:R:3 stress="-0.043811674030681924 -3.469446951953614e-18 1.835201187309036e-33 -3.469446951953614e-18 -0.043811674030681855 3.2992929030700876e-33 1.835201187309036e-33 3.2992929030700876e-33 -0.04374157686770075" energy=-12.0456837657 Minim_Constant_Volume=T Minim_Hydrostatic_Strain=F pbc="T T T"
Ti      -0.00000000       0.00000000      -0.00000000       22      -0.00000000       0.00000000      -0.00000000 
Ti       0.00000000       1.66079726       2.44546197       22       0.00000000      -0.00000000       0.00000000 
2
Lattice="2.854806618873208 -2.45912142986249e-16 -4.0110677381429e-32 -1.4274033094366037 2.472335054836158 -1.5841540461454679e-31 -6.869965108584858e-32 -3.5371380081292295e-31 4.835147933336915" Properties=species:S:1:pos:R:3:Z:I:1:forces:R:3 stress="-0.05196808185182719 -4.163413329581494e-64 2.3011210492143792e-33 -4.163413329581494e-64 -0.05196808185182719 5.388870600411521e-33 2.3011210492143792e-33 5.388870600411521e-33 -0.05204071349420186" energy=-11.9965501002 Minim_Constant_Volume=T Minim_Hydrostatic_Strain=F pbc="T T T"
Ti      -0.00000000       0.00000000      -0.00000000       22       0.00000000      -0.00000000       0.00000000 
Ti       0.00000000       1.64822337       2.41757397       22      -0.00000000       0.00000000      -0.00000000 
2
Lattice="2.859318761259822 -1.6787795933785032e-16 -5.549112765033174e-32 -1.4296593806299105 2.476242684768458 -1.8929735923769809e-31 -9.692518272356898e-32 -4.403297865354427e-31 4.688012557253105" Properties=species:S:1:pos:R:3:Z:I:1:forces:R:3 stress="-0.03486392803535701 -3.469446951953614e-18 -3.8345090223271045e-33 -3.469446951953614e-18 -0.034863928035357004 6.451720387530398e-33 -3.8345090223271045e-33 6.451720387530398e-33 -0.034946513429549006" energy=-11.9571537698 Minim_Constant_Volume=T Minim_Hydrostatic_Strain=F pbc="T T T"
Ti      -0.00000000      -0.00000000      -0.00000000       22       0.00000000      -0.00000000       0.00000000 
Ti       0.00000000       1.65082846       2.34400628       22      -0.00000000       0.00000000      -0.00000000 
2
Lattice="2.8575922121463817 -1.3751788538162487e-16 -7.119833036996454e-32 -1.4287961060731904 2.474747449375337 -2.2364429275815947e-31 -1.2502904400612284e-31 -5.308402634940989e-31 4.563854324754988" Properties=species:S:1:pos:R:3:Z:I:1:forces:R:3 stress="-0.03162043932242806 -1.917110111554069e-64 7.738583013232764e-34 -1.917110111554069e-64 -0.03162043932242809 1.8494880716858818e-35 7.738583013232764e-34 1.8494880716858818e-35 -0.03162320585119358" energy=-11.9274607057 Minim_Constant_Volume=T Minim_Hydrostatic_Strain=F pbc="T T T"
Ti      -0.00000000       0.00000000       0.00000000       22      -0.00000000       0.00000000      -0.00000000 
Ti       0.00000000       1.64983163       2.28192716       22       0.00000000       0.00000000       0.00000000 
2
Lattice="2.939652145621548 2.373243267477683e-17 4.2983028379809333e-35 -1.4698260728107733 2.5458134363976934 3.988165771491736e-34 6.235678981765644e-35 7.191435730550032e-34 5.053062005944877" Properties=species:S:1:pos:R:3:Z:I:1:forces:R:3 stress="0.019769731329467733 -6.938893903907228e-18 6.590615208891046e-36 -6.938893903907228e-18 0.019769731329467712 -2.540617198578807e-33 6.590615208891046e-36 -2.540617198578807e-33 0.01979702435484019" energy=-12.0758891601 Minim_Constant_Volume=T Minim_Hydrostatic_Strain=F pbc="T T T"
Ti      -0.00000000       0.00000000       0.00000000       22       0.00000000       0.00000000       0.00000000 
Ti       0.00000000       1.69720896       2.52653100       22      -0.00000000      -0.00000000      -0.00000000 
2
Lattice="2.926092100678792 3.490459398200062e-16 -9.255813636852773e-34 -1.4630460503393952 2.5340700930008113 4.075503609501532e-31 -1.6052965429636328e-33 8.0786213100811e-31 5.221947433739288" Properties=species:S:1:pos:R:3:Z:I:1:forces:R:3 stress="0.01917941385058955 -8.673617379884035e-18 1.0499705541477911e-32 -8.673617379884035e-18 0.019179413850589494 2.979233375047667e-32 1.0499705541477911e-32 2.979233375047667e-32 0.019326434440676454" energy=-12.0536391896 Minim_Constant_Volume=T Minim_Hydrostatic_Strain=F pbc="T T T"
Ti       0.00000000      -0.00000000      -0.00000000       22       0.00000000      -0.00000000       0.00000000 
Ti       0.00000000       1.68938006       2.61097372       22      -0.00000000       0.00000000      -0.00000000 
2
Lattice="2.955984377532934 3.9969668538378406e-16 -7.732114841029476e-32 -1.4779921887664662 2.559957564133457 2.894893437196225e-31 -1.3795230442919587e-31 4.910379552122065e-31 5.241090569499624" Properties=species:S:1:pos:R:3:Z:I:1:forces:R:3 stress="0.0333156958674801 -2.7755575615628914e-17 2.5831733868255544e-32 -2.7755575615628914e-17 0.03331569586747989 6.313594943982853e-32 2.5831733868255544e-32 6.313594943982853e-32 0.03332184322857207" energy=-12.0280855786 Minim_Constant_Volume=T Minim_Hydrostatic_Strain=F pbc="T T T"
Ti       0.00000000      -0.00000000      -0.00000000       22       0.00000000      -0.00000000       0.00000000 
Ti       0.00000000       1.70663838       2.62054528       22       0.00000000      -0.00000000      -0.00000000 
2
Lattice="2.9978654318806686 3.8783468252892337e-16 -2.44527903448362e-31 -1.4989327159403334 2.5962276211358724 2.6305424974631033e-33 -4.370907666391627e-31 -2.5777190166348873e-31 5.21360409122374" Properties=species:S:1:pos:R:3:Z:I:1:forces:R:3 stress="0.03147725480623075 -1.0408340855860843e-17 3.88419729925138e-32 -1.0408340855860843e-17 0.03147725480623059 9.037208690958014e-32 3.88419729925138e-32 9.037208690958014e-32 0.03157600997698116" energy=-11.9975126181 Minim_Constant_Volume=T Minim_Hydrostatic_Strain=F pbc="T T T"
Ti       0.00000000      -0.00000000      -0.00000000       22       0.00000000      -0.00000000      -0.00000000 
Ti       0.00000000       1.73081841       2.60680205       22       0.00000000      -0.00000000       0.00000000 
2
Lattice="3.0283469740435818 4.585335184550935e-16 -4.3255503793692805e-31 -1.51417348702179 2.6226254109954823 -2.975602754575305e-31 -7.675359580520416e-31 -1.051448990435591e-30 5.225840002761611" Properties=species:S:1:pos:R:3:Z:I:1:forces:R:3 stress="0.0376102250006286 -2.42861286636753e-17 5.541038740347406e-32 -2.42861286636753e-17 0.03761022500062839 1.4343123536739889e-31 5.541038740347406e-32 1.4343123536739889e-31 0.03764141180934908" energy=-11.965387195 Minim_Constant_Volume=T Minim_Hydrostatic_Strain=F pbc="T T T"
Ti       0.00000000      -0.00000000      -0.00000000       22      -0.00000000      -0.00000000      -0.00000000 
Ti       0.00000000       1.74841694       2.61292000       22       0.00000000       0.00000000       0.00000000 
2
Lattice="3.0610372120329483 6.027578874604788e-16 -7.593674554403786e-31 -1.530518606016473 2.6509359875500342 -8.713635668436303e-31 -1.3394162102248037e-30 -2.5312597165224452e-30 5.228402698009596" Properties=species:S:1:pos:R:3:Z:I:1:forces:R:3 stress="0.038397899662424004 -3.122502256758253e-17 7.731938667449831e-32 -3.122502256758253e-17 0.03839789966242377 2.0409739471189008e-31 7.731938667449831e-32 2.0409739471189008e-31 0.0384533693806472" energy=-11.9298605091 Minim_Constant_Volume=T Minim_Hydrostatic_Strain=F pbc="T T T"
Ti       0.00000000      -0.00000000      -0.00000000       22       0.00000000       0.00000000       0.00000000 
Ti       0.00000000       1.76729066       2.61420135       22       0.00000000       0.00000000      -0.00000000 
