2
Lattice="2.9489732757594513 -1.0224873685609353e-18 3.8678198332193524e-35 -1.474486637879725 2.5538857718890977 2.905616038454292e-34 5.988001605441965e-35 5.626707922840169e-34 4.758389103603841" Properties=species:S:1:pos:R:3:Z:I:1:forces:R:3 stress="-1.6046401829937592e-05 8.470329472543003e-21 -1.130359760114295e-38 8.470329472543003e-21 -1.604640182993758e-05 4.223478649759717e-35 -1.130359760114295e-38 4.223478649759717e-35 -5.176476742397348e-05" energy=-12.1378017123 Minim_Constant_Volume=T Minim_Hydrostatic_Strain=F pbc="T T T"
Ti      -0.00000000       0.00000000       0.00000000       22      -0.00000000       0.00000000       0.00000000 
Ti       0.00000000       1.70259051       2.37919455       22       0.00000000      -0.00000000      -0.00000000 
2
Lattice="2.9222777230845156 -1.4967476073516634e-17 5.328701704718986e-35 -1.4611388615422571 2.5307667451045375 3.0855288334584257e-34 8.335388026392788e-35 6.088112550886471e-34 4.72457458736895" Properties=species:S:1:pos:R:3:Z:I:1:forces:R:3 stress="-0.016556394763377506 -1.734723475976807e-18 -3.0266471745102014e-36 -1.734723475976807e-18 -0.016556394763377516 -5.504119827022324e-33 -3.0266471745102014e-36 -5.504119827022324e-33 -0.01656862323637276" energy=-12.1304778063 Minim_Constant_Volume=T Minim_Hydrostatic_Strain=F pbc="T T T"
Ti      -0.00000000       0.00000000      -0.00000000       22      -0.00000000       0.00000000       0.00000000 
Ti      -0.00000000       1.68717783       2.36228729       22       0.00000000      -0.00000000      -0.00000000 
2
Lattice="2.896597558051468 3.847882670215091e-17 4.730933169449501e-33 -1.4482987790257333 2.5085270698125415 -8.968109365246611e-33 7.645891025879151e-33 -1.23432931818547e-32 4.685423743442192" Properties=species:S:1:pos:R:3:Z:I:1:forces:R:3 stress="-0.0356277766417707 -6.938893903907228e-18 9.739377301861809e-34 -6.938893903907228e-18 -0.035627776641770706 1.5889297973459714e-33 9.739377301861809e-34 1.5889297973459714e-33 -0.035628422227392466" energy=-12.1075038169 Minim_Constant_Volume=T Minim_Hydrostatic_Strain=F pbc="T T T"
Ti      -0.00000000       0.00000000      -0.00000000       22       0.00000000      -0.00000000      -0.00000000 
Ti       0.00000000       1.67235138       2.34271187       22      -0.00000000       0.00000000       0.00000000 
2
Lattice="2.8716608637757326 1.1668943493355265e-17 1.0489357406601824e-33 -1.4358304318878656 2.4869312590833488 -2.9823706227370966e-32 1.695626044639286e-33 -5.474479003120697e-32 4.6416990909702935" Properties=species:S:1:pos:R:3:Z:I:1:forces:R:3 stress="-0.05774741872173082 -2.0816681711721685e-17 2.1493164984780506e-33 -2.0816681711721685e-17 -0.057747418721730816 6.50096213417148e-33 2.1493164984780506e-33 6.50096213417148e-33 -0.057747215426702976" energy=-12.0656692594 Minim_Constant_Volume=T Minim_Hydrostatic_Strain=F pbc="T T T"
Ti      -0.00000000       0.00000000      -0.00000000       22       0.00000000      -0.00000000       0.00000000 
Ti       0.00000000       1.65795417       2.32084955       22      -0.00000000       0.00000000      -0.00000000 
2
Lattice="2.845884524271778 8.910895371153006e-17 -2.964776878738216e-32 -1.4229422621358883 2.464608294256352 4.674260632501035e-32 -4.7921370073614706e-32 5.949626956506463e-32 4.598429895790393" Properties=species:S:1:pos:R:3:Z:I:1:forces:R:3 stress="-0.08075882721081322 6.245004513516506e-17 -1.310738322980629e-32 6.245004513516506e-17 -0.08075882721081308 -3.0888399193729277e-32 -1.310738322980629e-32 -3.0888399193729277e-32 -0.08076721378968404" energy=-12.0038038551 Minim_Constant_Volume=T Minim_Hydrostatic_Strain=F pbc="T T T"
Ti      -0.00000000       0.00000000      -0.00000000       22      -0.00000000       0.00000000       0.00000000 
Ti      -0.00000000       1.64307220       2.29921495       22       0.00000000      -0.00000000      -0.00000000 
2
Lattice="2.8215789347940405 -1.0644787659281537e-17 3.5958450847109823e-32 -1.4107894673970196 2.4435590363146757 1.4690265414324974e-31 5.797064678794315e-32 3.0772141146144246e-31 4.548041387780282" Properties=species:S:1:pos:R:3:Z:I:1:forces:R:3 stress="-0.11483157905381099 5.551115123125783e-17 -6.419804732653036e-33 5.551115123125783e-17 -0.11483157905381096 -1.072777784506407e-32 -6.419804732653036e-33 -1.072777784506407e-32 -0.11473677806342077" energy=-11.9172899111 Minim_Constant_Volume=T Minim_Hydrostatic_Strain=F pbc="T T T"
Ti      -0.00000000       0.00000000      -0.00000000       22       0.00000000      -0.00000000       0.00000000 
Ti       0.00000000       1.62903936       2.27402069       22      -0.00000000      -0.00000000      -0.00000000 
2
Lattice="2.9750319502043614 -8.030178779662173e-18 -2.6555401173375253e-34 -1.48751597510218 2.5764532459473384 5.6427858186196395e-34 -4.3093674643037615e-34 7.900971019740904e-34 4.7922757999847185" Properties=species:S:1:pos:R:3:Z:I:1:forces:R:3 stress="0.015612096386679798 1.734723475976807e-18 -5.519720937078065e-34 1.734723475976807e-18 0.015612096386679779 -2.7568414426736522e-34 -5.519720937078065e-34 -2.7568414426736522e-34 0.015767619521974943" energy=-12.1307655329 Minim_Constant_Volume=T Minim_Hydrostatic_Strain=F pbc="T T T"
Ti      -0.00000000       0.00000000       0.00000000       22      -0.00000000       0.00000000      -0.00000000 
Ti       0.00000000       1.71763550       2.39613790       22       0.00000000      -0.00000000       0.00000000 
2
Lattice="2.9986282180040194 -5.073097897805488e-17 -1.6260914667804437e-33 -1.499314109002009 2.5968882132963427 -6.700617902022584e-33 -2.6223871472350253e-33 -1.3988555837787626e-32 4.832208391909507" Properties=species:S:1:pos:R:3:Z:I:1:forces:R:3 stress="0.031180529986652786 -1.3877787807814457e-17 -7.228986738686e-35 -1.3877787807814457e-17 0.03118052998665281 -2.0903563922259336e-33 -7.228986738686e-35 -2.0903563922259336e-33 0.031183399363291637" energy=-12.1098793617 Minim_Constant_Volume=T Minim_Hydrostatic_Strain=F pbc="T T T"
Ti      -0.00000000       0.00000000       0.00000000       22       0.00000000       0.00000000      -0.00000000 
Ti       0.00000000       1.73125881       2.41610420       22      -0.00000000      -0.00000000       0.00000000 
2
Lattice="3.023909274950337 -8.169556942310555e-17 3.7599605558133926e-33 -1.5119546374751678 2.618782250846375 -1.1164186689700154e-32 6.052698607407661e-33 -1.7306530859678917e-32 4.864880522922453" Properties=species:S:1:pos:R:3:Z:I:1:forces:R:3 stress="0.046279460610381545 -2.42861286636753e-17 4.0045529144036804e-33 -2.42861286636753e-17 0.04627946061038147 -2.0351134833619404e-32 4.0045529144036804e-33 -2.0351134833619404e-32 0.04628217720528111" energy=-12.0751238111 Minim_Constant_Volume=T Minim_Hydrostatic_Strain=F pbc="T T T"
Ti      -0.00000000       0.00000000       0.00000000       22       0.00000000      -0.00000000       0.00000000 
Ti       0.00000000       1.74585483       2.43244026       22      -0.00000000       0.00000000      -0.00000000 
2
Lattice="3.0491013494353325 -2.124719013565766e-17 1.0651610085393402e-32 -1.5245506747176656 2.640599227324411 8.841049778820211e-33 1.7151628334931862e-32 2.62247176057728e-32 4.896097620705727" Properties=species:S:1:pos:R:3:Z:I:1:forces:R:3 stress="0.061189344678876705 -6.938893903907228e-18 2.8988122526892664e-33 -6.938893903907228e-18 0.06118934467887662 1.3211002862673758e-33 2.8988122526892664e-33 1.3211002862673758e-33 0.061232204623670856" energy=-12.0269668343 Minim_Constant_Volume=T Minim_Hydrostatic_Strain=F pbc="T T T"
Ti      -0.00000000       0.00000000       0.00000000       22      -0.00000000      -0.00000000      -0.00000000 
Ti      -0.00000000       1.76039948       2.44804881       22       0.00000000       0.00000000       0.00000000 
2
Lattice="3.0734660761268535 1.0665205900853424e-16 3.4394368271946667e-32 -1.536733038063426 2.661699699595533 4.335726833014329e-32 5.530115198944644e-32 1.122716160041487e-31 4.928298625513893" Properties=species:S:1:pos:R:3:Z:I:1:forces:R:3 stress="0.07584178370412234 -5.551115123125783e-17 -5.152221490804611e-33 -5.551115123125783e-17 0.07584178370412228 -1.1696496885913715e-32 -5.152221490804611e-33 -1.1696496885913715e-32 0.07588350311202625" energy=-11.9655391791 Minim_Constant_Volume=T Minim_Hydrostatic_Strain=F pbc="T T T"
Ti      -0.00000000       0.00000000       0.00000000       22      -0.00000000      -0.00000000       0.00000000 
Ti      -0.00000000       1.77446647       2.46414931       22      -0.00000000      -0.00000000      -0.00000000 
2
Lattice="3.09687115587608 1.0746423649306975e-16 4.108773994703709e-32 -1.5484355779380394 2.6819690932359643 1.1351246761074382e-31 6.607841795992223e-32 2.484540252806911e-31 4.9619582332767544" Properties=species:S:1:pos:R:3:Z:I:1:forces:R:3 stress="0.08998924655552772 6.796160106037951e-65 3.8625768066496884e-33 6.796160106037951e-65 0.08998924655552767 -8.237181946900203e-33 3.8625768066496884e-33 -8.237181946900203e-33 0.08999995521179799" energy=-11.8911991163 Minim_Constant_Volume=T Minim_Hydrostatic_Strain=F pbc="T T T"
Ti      -0.00000000       0.00000000       0.00000000       22       0.00000000      -0.00000000      -0.00000000 
Ti       0.00000000       1.78797940       2.48097912       22      -0.00000000       0.00000000       0.00000000 
