2
Lattice="2.9475986147605933 1.6341893557182603e-18 -3.333116082601693e-22 -1.473799307380296 2.5526952805424954 -1.7868546562997327e-22 -5.2991301188165465e-22 -6.349078838995579e-22 4.764782318744052" Properties=species:S:1:pos:R:3:Z:I:1:forces:R:3 stress="6.025318245036492e-06 -6.776263578034403e-21 2.017302237487179e-23 -6.776263578034403e-21 6.025318245036488e-06 1.1790447373405149e-23 2.017302237487179e-23 1.1790447373405149e-23 8.531293490128497e-05" energy=-12.1405095619 Minim_Constant_Volume=T Minim_Hydrostatic_Strain=F pbc="T T T"
Ti      -0.00000000       0.00000000      -0.00000000       22       0.00000000      -0.00000000      -0.00000000 
Ti       0.00000000       1.70179685       2.38239116       22      -0.00000000       0.00000000       0.00000000 
2
Lattice="2.9221303712011624 1.6200694099681019e-18 -2.833830399729136e-22 -1.4610651856005805 2.530639134630259 2.1910916688456698e-23 -4.488980233457253e-22 -2.1350957308904365e-22 4.726994720797409" Properties=species:S:1:pos:R:3:Z:I:1:forces:R:3 stress="-0.016922730628748685 1.3877787807814457e-17 -1.686035315214642e-23 1.3877787807814457e-17 -0.01692273062874867 1.4796047697270583e-22 -1.686035315214642e-23 1.4796047697270583e-22 -0.016915231820239702" energy=-12.1330681051 Minim_Constant_Volume=T Minim_Hydrostatic_Strain=F pbc="T T T"
Ti      -0.00000000       0.00000000      -0.00000000       22       0.00000000      -0.00000000       0.00000000 
Ti       0.00000000       1.68709276       2.36349736       22      -0.00000000       0.00000000      -0.00000000 
2
Lattice="2.896938503434698 1.6061026907721906e-18 -2.8093997715114023e-22 -1.4484692517173483 2.5088223371757223 2.1722021312227907e-23 -4.450280455527413e-22 -2.1166889377331464e-22 4.686243005161205" Properties=species:S:1:pos:R:3:Z:I:1:forces:R:3 stress="-0.03546368257008327 -6.938893903907228e-18 -3.541795626511028e-23 -6.938893903907228e-18 -0.035463682570083234 -8.585483012139183e-23 -3.541795626511028e-23 -8.585483012139183e-23 -0.03554222189711653" energy=-12.1096859694 Minim_Constant_Volume=T Minim_Hydrostatic_Strain=F pbc="T T T"
Ti      -0.00000000       0.00000000      -0.00000000       22      -0.00000000       0.00000000       0.00000000 
Ti       0.00000000       1.67254822       2.34312150       22       0.00000000      -0.00000000      -0.00000000 
2
Lattice="2.8697936854746544 -9.254083502713217e-17 -2.292256928907059e-22 -1.4348968427373265 2.4853142352412205 3.3106181024010554e-22 -3.6075148888396343e-22 4.146983936255545e-22 4.6496447740386495" Properties=species:S:1:pos:R:3:Z:I:1:forces:R:3 stress="-0.05630503952407287 1.3877787807814457e-17 -2.5409787454218787e-23 1.3877787807814457e-17 -0.056305039524072856 -1.8443903207363998e-22 -2.5409787454218787e-23 -1.8443903207363998e-22 -0.056279631121821036" energy=-12.0686922029 Minim_Constant_Volume=T Minim_Hydrostatic_Strain=F pbc="T T T"
Ti      -0.00000000       0.00000000      -0.00000000       22      -0.00000000       0.00000000       0.00000000 
Ti       0.00000000       1.65687616       2.32482239       22       0.00000000      -0.00000000      -0.00000000 
2
Lattice="2.841796020436824 -9.163800800004494e-17 -6.283423774968335e-23 -1.4208980102184114 2.4610675460718117 7.8789888658756885e-22 -9.052681317796237e-23 1.424114752662188e-21 4.613556798541768" Properties=species:S:1:pos:R:3:Z:I:1:forces:R:3 stress="-0.07938750504059285 -6.938893903907228e-18 -9.390309232358677e-23 -6.938893903907228e-18 -0.07938750504059279 -1.131711981079708e-22 -9.390309232358677e-23 -1.131711981079708e-22 -0.079293537008848" energy=-12.0080400258 Minim_Constant_Volume=T Minim_Hydrostatic_Strain=F pbc="T T T"
Ti      -0.00000000       0.00000000      -0.00000000       22       0.00000000      -0.00000000      -0.00000000 
Ti       0.00000000       1.64071170       2.30677840       22      -0.00000000       0.00000000       0.00000000 
2
Lattice="2.8125686910190475 -1.9704375216560268e-16 3.531523722046478e-22 -1.406284345509523 2.4357559363112413 1.7193426072002296e-21 5.849821897137881e-22 3.5560655397583e-21 4.579102441529563" Properties=species:S:1:pos:R:3:Z:I:1:forces:R:3 stress="-0.10475714955101988 -3.469446951953614e-17 -1.098552195755149e-22 -3.469446951953614e-17 -0.1047571495510198 -1.2956295871161808e-22 -1.098552195755149e-22 -1.2956295871161808e-22 -0.10479513515666969" energy=-11.9257167532 Minim_Constant_Volume=T Minim_Hydrostatic_Strain=F pbc="T T T"
Ti      -0.00000000       0.00000000      -0.00000000       22      -0.00000000      -0.00000000      -0.00000000 
Ti       0.00000000       1.62383729       2.28955122       22       0.00000000       0.00000000       0.00000000 
2
Lattice="2.9744588103990686 1.6490810189132071e-18 -4.690442921041867e-22 -1.4872294051995336 2.575956892316035 -9.470952531604418e-23 -7.506137054991713e-22 -6.063892048309314e-22 4.796083960162815" Properties=species:S:1:pos:R:3:Z:I:1:forces:R:3 stress="0.015012524024970974 6.760104910772789e-44 2.1997136659786713e-23 6.760104910772789e-44 0.015012524024970953 5.368767936815158e-23 2.1997136659786713e-23 5.368767936815158e-23 0.015052143056279263" energy=-12.133638042 Minim_Constant_Volume=T Minim_Hydrostatic_Strain=F pbc="T T T"
Ti       0.00000000      -0.00000000      -0.00000000       22      -0.00000000      -0.00000000       0.00000000 
Ti       0.00000000       1.71730459       2.39804198       22       0.00000000       0.00000000      -0.00000000 
2
Lattice="2.998449538240145 1.6623818095559673e-18 -4.728274051592207e-22 -1.4992247691200717 2.5967334720816857 -9.547341232563094e-23 -7.566678384592429e-22 -6.112800839138774e-22 4.834767146693739" Properties=species:S:1:pos:R:3:Z:I:1:forces:R:3 stress="0.02875342816362216 2.6288259894348998e-43 8.090436492454902e-23 2.6288259894348998e-43 0.028753428163622124 1.2484451481193605e-22 8.090436492454902e-23 1.2484451481193605e-22 0.02869195513798778" energy=-12.1139005331 Minim_Constant_Volume=T Minim_Hydrostatic_Strain=F pbc="T T T"
Ti       0.00000000      -0.00000000      -0.00000000       22       0.00000000      -0.00000000      -0.00000000 
Ti       0.00000000       1.73115565       2.41738357       22      -0.00000000       0.00000000       0.00000000 
2
Lattice="3.023446659439209 1.7653459282154187e-16 -1.1443310954739908e-21 -1.5117233297196035 2.6183816140615535 -9.152561730505367e-22 -1.840425117944581e-21 -2.7635311686282085e-21 4.868367111654102" Properties=species:S:1:pos:R:3:Z:I:1:forces:R:3 stress="0.04108601127439179 -1.734723475976807e-17 1.1161448819491195e-22 -1.734723475976807e-17 0.041086011274391744 2.570357795767414e-22 1.1161448819491195e-22 2.570357795767414e-22 0.04099592659493433" energy=-12.0825409033 Minim_Constant_Volume=T Minim_Hydrostatic_Strain=F pbc="T T T"
Ti       0.00000000       0.00000000      -0.00000000       22      -0.00000000       0.00000000      -0.00000000 
Ti       0.00000000       1.74558774       2.43418356       22       0.00000000      -0.00000000       0.00000000 
2
Lattice="3.0458253577434005 3.251265593676756e-16 -1.584427099894822e-21 -1.5229126788716991 2.6377621352966107 -1.7509646749825582e-21 -2.5474443172108548e-21 -4.724073047771908e-21 4.908653001253736" Properties=species:S:1:pos:R:3:Z:I:1:forces:R:3 stress="0.052078711494489345 -2.42861286636753e-17 1.667697621157764e-22 -2.42861286636753e-17 0.05207871149448936 4.255227745047842e-22 1.667697621157764e-22 4.255227745047842e-22 0.05208846600124954" energy=-12.0407238116 Minim_Constant_Volume=T Minim_Hydrostatic_Strain=F pbc="T T T"
Ti       0.00000000       0.00000000      -0.00000000       22      -0.00000000       0.00000000      -0.00000000 
Ti       0.00000000       1.75850809       2.45432650       22      -0.00000000       0.00000000       0.00000000 
2
Lattice="3.0695120429114713 4.731584885085509e-16 -2.510786220841506e-21 -1.5347560214557343 2.6582754063836043 -3.1953911293980013e-21 -4.042291501112712e-21 -8.27755791410777e-21 4.9430329560794934" Properties=species:S:1:pos:R:3:Z:I:1:forces:R:3 stress="0.06206744106010693 -2.7755575615628914e-17 3.010193881927883e-22 -2.7755575615628914e-17 0.062067441060106934 7.515246049479278e-22 3.010193881927883e-22 7.515246049479278e-22 0.0620489122727793" energy=-11.98947852 Minim_Constant_Volume=T Minim_Hydrostatic_Strain=F pbc="T T T"
Ti       0.00000000       0.00000000      -0.00000000       22       0.00000000       0.00000000      -0.00000000 
Ti       0.00000000       1.77218360       2.47151648       22      -0.00000000      -0.00000000       0.00000000 
2
Lattice="3.0917941964918216 6.527340812136762e-16 -3.9759578881313326e-21 -1.5458970982459093 2.677572317435214 -5.778205915906612e-21 -6.4006033717741905e-21 -1.4440181691861583e-20 4.9803105661995755" Properties=species:S:1:pos:R:3:Z:I:1:forces:R:3 stress="0.07072456072209385 -4.163336342344337e-17 4.866921574496413e-22 -4.163336342344337e-17 0.07072456072209383 1.2478372995953288e-21 4.866921574496413e-22 1.2478372995953288e-21 0.07076750385658558" energy=-11.929908 Minim_Constant_Volume=T Minim_Hydrostatic_Strain=F pbc="T T T"
Ti       0.00000000       0.00000000      -0.00000000       22       0.00000000       0.00000000      -0.00000000 
Ti       0.00000000       1.78504821       2.49015528       22       0.00000000      -0.00000000       0.00000000 
