4
Lattice="1.8855374569892382 -3.2658466767179566 1.6633876723229876e-18 1.8855374569892382 3.2658466767179566 -1.6633876723229641e-18 3.720930710142193e-32 -3.0131057248083957e-18 6.496784839558015" Properties=species:S:1:pos:R:3:Z:I:1:forces:R:3 cutoff=-1.0 stress="7.096682570718597e-05 3.3881317890172014e-20 2.6822943372874115e-33 3.3881317890172014e-20 7.09668256359821e-05 -3.178702617447615e-21 2.6822943372874115e-33 -3.178702617447615e-21 -2.7481916722903354e-05" Minim_Constant_Volume=T nneightol=1.2 pbc="T T T" energy=-652.669006372 Minim_Hydrostatic_Strain=F
Si       1.88553746       1.08861556       0.42070305       14      -0.00000000       0.00000000      -0.00059380 
Si       1.88553746      -1.08861556       3.66909546       14      -0.00000000       0.00000000      -0.00059380 
Si       1.88553746       1.08861556       2.82768938       14       0.00000000      -0.00000000       0.00059380 
Si       1.88553746      -1.08861556      -0.42070305       14       0.00000000      -0.00000000       0.00059380 
4
Lattice="1.8777808834990888 -3.252411897201794 -2.5826599828950354e-18 1.8777808834990888 3.252411897201794 2.5826599828950678e-18 5.197669177934773e-32 5.249335147533089e-18 6.386396139507919" Properties=species:S:1:pos:R:3:Z:I:1:forces:R:3 cutoff=-1.0 stress="-0.027136526092288407 -3.469446951953614e-18 -6.440931359326904e-33 -3.469446951953614e-18 -0.027136526067261284 -8.409372805808832e-18 -6.440931359326904e-33 -8.409372805808832e-18 -0.027074797418684616" Minim_Constant_Volume=T nneightol=1.2 pbc="T T T" energy=-652.641861452 Minim_Hydrostatic_Strain=F
Si       1.87778088       1.08413730       0.41132675       14       0.00000000       0.00000000       0.00049609 
Si       1.87778088      -1.08413730       3.60452481       14       0.00000000       0.00000000       0.00049609 
Si       1.87778088       1.08413730       2.78187133       14      -0.00000000      -0.00000000      -0.00049609 
Si       1.87778088      -1.08413730      -0.41132675       14      -0.00000000      -0.00000000      -0.00049609 
4
Lattice="1.867640639847518 -3.2348484798091452 5.216234411487994e-17 1.867640639847518 3.2348484798091452 -5.2162344114879874e-17 1.0969061169226263e-31 -1.0233527950473898e-16 6.290565049904138" Properties=species:S:1:pos:R:3:Z:I:1:forces:R:3 cutoff=-1.0 stress="-0.05929607744644187 1.4710071617445051e-64 -5.1848641114875175e-33 1.4710071617445051e-64 -0.05929607739831373 2.075132706858877e-33 -5.1848641114875175e-33 2.075132706858877e-33 -0.059337594185899456" Minim_Constant_Volume=T nneightol=1.2 pbc="T T T" energy=-652.556749138 Minim_Hydrostatic_Strain=F
Si       1.86764064       1.07828283       0.40422278       14       0.00000000       0.00000000      -0.00037210 
Si       1.86764064      -1.07828283       3.54950530       14       0.00000000       0.00000000      -0.00037210 
Si       1.86764064       1.07828283       2.74105975       14      -0.00000000      -0.00000000       0.00037210 
Si       1.86764064      -1.07828283      -0.40422278       14      -0.00000000      -0.00000000       0.00037210 
4
Lattice="1.8548809475143266 -3.212748044140864 4.665164310506916e-18 1.8548809475143266 3.212748044140864 -4.6651643105068114e-18 1.6544523021470537e-31 -1.0752061035512517e-17 6.209714528402905" Properties=species:S:1:pos:R:3:Z:I:1:forces:R:3 cutoff=-1.0 stress="-0.09504250792405466 -5.551115123125783e-17 1.4787524292967166e-33 -5.551115123125783e-17 -0.09504250786166135 -4.307555591050103e-17 1.4787524292967166e-33 -4.307555591050103e-17 -0.09504915984403053" Minim_Constant_Volume=T nneightol=1.2 pbc="T T T" energy=-652.40280683 Minim_Hydrostatic_Strain=F
Si       1.85488095       1.07091601       0.39947224       14      -0.00000000       0.00000000      -0.00015383 
Si       1.85488095      -1.07091601       3.50432950       14      -0.00000000       0.00000000      -0.00015383 
Si       1.85488095       1.07091601       2.70538502       14       0.00000000      -0.00000000       0.00015383 
Si       1.85488095      -1.07091601      -0.39947224       14       0.00000000      -0.00000000       0.00015383 
4
Lattice="1.8389679773408498 -3.1851859709919688 -3.806759544968774e-16 1.8389679773408498 3.1851859709919688 3.8067595449687767e-16 4.157965220044334e-31 7.345876052706468e-16 6.146989588263199" Properties=species:S:1:pos:R:3:Z:I:1:forces:R:3 cutoff=-1.0 stress="-0.13118996856529214 -1.3877787807814457e-17 -4.1863950469983585e-32 -1.3877787807814457e-17 -0.1311899685038861 1.8398785129602097e-17 -4.1863950469983585e-32 1.8398785129602097e-17 -0.13116969427492922" Minim_Constant_Volume=T nneightol=1.2 pbc="T T T" energy=-652.176430772 Minim_Hydrostatic_Strain=F
Si       1.83896798       1.06172866       0.39809550       14       0.00000000       0.00000000       0.00051520 
Si       1.83896798      -1.06172866       3.47159029       14       0.00000000       0.00000000       0.00051520 
Si       1.83896798       1.06172866       2.67539930       14      -0.00000000      -0.00000000      -0.00051520 
Si       1.83896798      -1.06172866      -0.39809550       14      -0.00000000      -0.00000000      -0.00051520 
4
Lattice="1.817677537996819 -3.1483098479933544 9.224188992713125e-16 1.817677537996819 3.148309847993355 -9.224188992713121e-16 7.168993952951598e-31 -1.783329643886376e-15 6.116974620844619" Properties=species:S:1:pos:R:3:Z:I:1:forces:R:3 cutoff=-1.0 stress="-0.16315036319697238 1.3877787807814457e-17 -1.6084306774830274e-31 1.3877787807814457e-17 -0.16315036315487713 -5.36512280191188e-16 -1.6084306774830274e-31 -5.36512280191188e-16 -0.1631507197767447" Minim_Constant_Volume=T nneightol=1.2 pbc="T T T" energy=-651.880675738 Minim_Hydrostatic_Strain=F
Si       1.81767754       1.04943662       0.40356113       14      -0.00000000      -0.00000000       0.00001759 
Si       1.81767754      -1.04943662       3.46204844       14       0.00000000      -0.00000000       0.00001759 
Si       1.81767754       1.04943662       2.65492618       14       0.00000000       0.00000000      -0.00001759 
Si       1.81767754      -1.04943662      -0.40356113       14       0.00000000       0.00000000      -0.00001759 
4
Lattice="1.895453860906091 -3.2830223922436863 5.557626883505692e-18 1.895453860906091 3.2830223922436863 -5.557626883505668e-18 3.7817463424505744e-32 -1.0829480662263629e-17 6.589505209766184" Properties=species:S:1:pos:R:3:Z:I:1:forces:R:3 cutoff=-1.0 stress="0.026732991751137133 -3.469446951953614e-18 8.914735142515354e-34 -3.469446951953614e-18 0.0267329917226089 -6.788308562792568e-18 8.914735142515354e-34 -6.788308562792568e-18 0.026800723120118018" Minim_Constant_Volume=T nneightol=1.2 pbc="T T T" energy=-652.642152303 Minim_Hydrostatic_Strain=F
Si       1.89545386       1.09434080       0.42616690       14      -0.00000000      -0.00000000       0.00102036 
Si       1.89545386      -1.09434080       3.72091950       14       0.00000000      -0.00000000       0.00102036 
Si       1.89545386       1.09434080       2.86858571       14      -0.00000000       0.00000000      -0.00102036 
Si       1.89545386      -1.09434080      -0.42616690       14       0.00000000       0.00000000      -0.00102036 
4
Lattice="1.9076439034454857 -3.304136165471847 -2.4936484679640264e-17 1.9076439034454857 3.304136165471847 2.4936484679640292e-17 4.6851797871976133e-32 5.036834478285641e-17 6.664366008488741" Properties=species:S:1:pos:R:3:Z:I:1:forces:R:3 cutoff=-1.0 stress="0.052129634463235035 6.938893903907228e-18 7.38374533138063e-33 6.938893903907228e-18 0.052129634401538866 1.724450026794233e-17 7.38374533138063e-33 1.724450026794233e-17 0.052143121599845604" Minim_Constant_Volume=T nneightol=1.2 pbc="T T T" energy=-652.562764134 Minim_Hydrostatic_Strain=F
Si       1.90764390       1.10137872       0.42840434       14      -0.00000000       0.00000000       0.00042882 
Si       1.90764390      -1.10137872       3.76058734       14       0.00000000       0.00000000       0.00042882 
Si       1.90764390       1.10137872       2.90377867       14       0.00000000      -0.00000000      -0.00042882 
Si       1.90764390      -1.10137872      -0.42840434       14       0.00000000      -0.00000000      -0.00042882 
4
Lattice="1.918491065778089 -3.3229240021309905 -2.5242120362973538e-17 1.918491065778089 3.3229240021309905 2.524212036297356e-17 3.446096103340174e-32 5.0654747094135437e-17 6.7460482538074045" Properties=species:S:1:pos:R:3:Z:I:1:forces:R:3 cutoff=-1.0 stress="0.07006903188805312 -1.0408340855860843e-17 1.8548868528915788e-33 -1.0408340855860843e-17 0.07006903178952092 -2.7239172202149916e-34 1.8548868528915788e-33 -2.7239172202149916e-34 0.0700679100686455" Minim_Constant_Volume=T nneightol=1.2 pbc="T T T" energy=-652.439642206 Minim_Hydrostatic_Strain=F
Si       1.91849107       1.10764133       0.42938227       14      -0.00000000       0.00000000       0.00012865 
Si       1.91849107      -1.10764133       3.80240639       14      -0.00000000       0.00000000       0.00012865 
Si       1.91849107       1.10764133       2.94364187       14       0.00000000      -0.00000000      -0.00012865 
Si       1.91849107      -1.10764133      -0.42938227       14      -0.00000000      -0.00000000      -0.00012865 
4
Lattice="1.9315333063698912 -3.345513826087488 -1.4276109751836715e-17 1.9315333063698907 3.345513826087488 1.427610975183674e-17 3.822259520180134e-32 2.836553506312256e-17 6.810134449580307" Properties=species:S:1:pos:R:3:Z:I:1:forces:R:3 cutoff=-1.0 stress="0.08502921319375428 -2.7755575615628914e-17 2.9415636645902566e-33 -2.7755575615628914e-17 0.08502921304413938 -1.0371046495275256e-17 2.9415636645902566e-33 -1.0371046495275256e-17 0.08502889169899512" Minim_Constant_Volume=T nneightol=1.2 pbc="T T T" energy=-652.283830568 Minim_Hydrostatic_Strain=F
Si       1.93153331       1.11517128       0.42778157       14       0.00000000       0.00000000       0.00004363 
Si       1.93153331      -1.11517128       3.83284878       14      -0.00000000       0.00000000       0.00004363 
Si       1.93153331       1.11517128       2.97728566       14       0.00000000      -0.00000000      -0.00004363 
Si       1.93153331      -1.11517128      -0.42778157       14      -0.00000000      -0.00000000      -0.00004363 
4
Lattice="1.9471821913872713 -3.372618491085018 -5.834125738394131e-17 1.9471821913872709 3.3726184910850185 5.834125738394131e-17 6.282475425639455e-33 1.1810484299063722e-16 6.853423280608439" Properties=species:S:1:pos:R:3:Z:I:1:forces:R:3 cutoff=-1.0 stress="0.09552291967516724 -4.163336342344337e-17 1.4090428227373545e-33 -4.163336342344337e-17 0.09552291944807509 4.575301305362905e-18 1.4090428227373545e-33 4.575301305362905e-18 0.09552212172153214" Minim_Constant_Volume=T nneightol=1.2 pbc="T T T" energy=-652.102364118 Minim_Hydrostatic_Strain=F
Si       1.94718219       1.12420616       0.42438440       14      -0.00000000      -0.00000000      -0.00003116 
Si       1.94718219      -1.12420616       3.85109603       14      -0.00000000      -0.00000000      -0.00003116 
Si       1.94718219       1.12420616       3.00232725       14       0.00000000       0.00000000       0.00003116 
Si       1.94718219      -1.12420616      -0.42438440       14       0.00000000       0.00000000       0.00003116 
4
Lattice="1.9661633893330108 -3.405494892527585 -3.15565217576165e-17 1.9661633893330104 3.4054948925275856 3.1556521757616486e-17 -3.90211584423889e-33 6.448982167762925e-17 6.87097083504725" Properties=species:S:1:pos:R:3:Z:I:1:forces:R:3 cutoff=-1.0 stress="0.10043298131749559 -3.8163916471489756e-17 -2.9123971767837763e-34 -3.8163916471489756e-17 0.10043298095056402 -6.599933400526082e-34 -2.9123971767837763e-34 -6.599933400526082e-34 0.100432822753978" Minim_Constant_Volume=T nneightol=1.2 pbc="T T T" energy=-651.905586071 Minim_Hydrostatic_Strain=F
Si       1.96616339       1.13516496       0.41994393       14      -0.00000000       0.00000000       0.00009005 
Si       1.96616339      -1.13516496       3.85542934       14       0.00000000       0.00000000       0.00009005 
Si       1.96616339       1.13516496       3.01554149       14      -0.00000000      -0.00000000      -0.00009005 
Si       1.96616339      -1.13516496      -0.41994393       14       0.00000000      -0.00000000      -0.00009005 
