3
Lattice="4.019580581324846 -2.3207059306572932 -1.0909966177394966e-21 4.019580581324846 2.3207059306572932 -4.9336927148023415e-21 -2.114553557276733e-21 -2.3273641391966755e-21 2.843722347899974" Properties=species:S:1:pos:R:3:Z:I:1:forces:R:3 stress="-1.0206167466137501e-06 -2.3466586925068923e-20 -2.9641205586527217e-22 -2.3466586925068923e-20 -1.0206167466137766e-06 -2.224717267768181e-21 -2.9641205586527217e-22 -2.224717267768181e-21 8.755687051393949e-06" energy=-18.1308844522 Minim_Constant_Volume=T Minim_Hydrostatic_Strain=F pbc="T T T"
Ti       1.33986019       0.00000000      -0.00000000       22       0.00000000       0.00000000       0.00000000 
Ti       4.01958058      -0.00000000       1.42186117       22       0.00000000      -0.00000000       0.00000000 
Ti       6.69930097      -0.00000000       1.42186117       22      -0.00000000       0.00000000      -0.00000000 
3
Lattice="3.985037988281833 -2.300762755265402 2.844564310878649e-21 3.985037988281833 2.300762755265402 -4.854689607560362e-21 -6.933957906760092e-22 -4.689109640650218e-21 2.8209039981060324" Properties=species:S:1:pos:R:3:Z:I:1:forces:R:3 stress="-0.017452606173601434 -3.7166590979128474e-18 -3.0461380023482873e-22 -3.7166590979128474e-18 -0.017452606173601427 -2.2618987162702203e-21 -3.0461380023482873e-22 -2.2618987162702203e-21 -0.017432406759512846" energy=-18.1195230263 Minim_Constant_Volume=T Minim_Hydrostatic_Strain=F pbc="T T T"
Ti       1.32834600       0.00000000      -0.00000000       22       0.00000000       0.00000000       0.00000000 
Ti       3.98503799      -0.00000000       1.41045200       22       0.00000000       0.00000000      -0.00000000 
Ti       6.64172998      -0.00000000       1.41045200       22      -0.00000000      -0.00000000       0.00000000 
3
Lattice="3.9499179882592284 -2.2804862137984117 2.8392353932398528e-21 3.9499179882592284 2.2804862137984117 -4.798081942151259e-21 -6.749959779851574e-22 -4.648694804129658e-21 2.797667317314025" Properties=species:S:1:pos:R:3:Z:I:1:forces:R:3 stress="-0.03686884131505472 -1.3377833315032637e-18 -6.663637825238018e-24 -1.3377833315032637e-18 -0.03686884131505476 -1.4060194876205782e-21 -6.663637825238018e-24 -1.4060194876205782e-21 -0.03687680742186435" energy=-18.0837307318 Minim_Constant_Volume=T Minim_Hydrostatic_Strain=F pbc="T T T"
Ti       1.31663933       0.00000000      -0.00000000       22       0.00000000       0.00000000       0.00000000 
Ti       3.94991799      -0.00000000       1.39883366       22       0.00000000       0.00000000       0.00000000 
Ti       6.58319665      -0.00000000       1.39883366       22       0.00000000       0.00000000       0.00000000 
3
Lattice="3.914115548399113 -2.2598156655075288 -1.6667248593791437e-17 3.914115548399113 2.2598156655075283 1.6670105042041425e-17 1.0305803141222491e-21 2.0448928936692725e-17 2.7741060358656107" Properties=species:S:1:pos:R:3:Z:I:1:forces:R:3 stress="-0.05848192600132983 2.1431266949003085e-18 2.2429295252993616e-22 2.1431266949003085e-18 -0.0584819260013299 8.650712121258659e-19 2.2429295252993616e-22 8.650712121258659e-19 -0.05848043782701735" energy=-18.0207488586 Minim_Constant_Volume=T Minim_Hydrostatic_Strain=F pbc="T T T"
Ti       1.30470518      -0.00000000       0.00000000       22       0.00000000       0.00000000       0.00000000 
Ti       3.91411555      -0.00000000       1.38705302       22      -0.00000000       0.00000000       0.00000000 
Ti       6.52352591      -0.00000000       1.38705302       22       0.00000000      -0.00000000      -0.00000000 
3
Lattice="3.877639041820698 -2.2387559446153835 -1.652752353580311e-17 3.877639041820698 2.238755944615383 1.652609446208215e-17 -4.889515486518872e-22 2.0260910729406857e-17 2.7501498080859754" Properties=species:S:1:pos:R:3:Z:I:1:forces:R:3 stress="-0.08251378213245339 -3.759885970557017e-17 -7.523136386244175e-22 -3.759885970557017e-17 -0.08251378213245338 1.2168319224854473e-18 -7.523136386244175e-22 1.2168319224854473e-18 -0.08251260495062684" energy=-17.9275266671 Minim_Constant_Volume=T Minim_Hydrostatic_Strain=F pbc="T T T"
Ti       1.29254635      -0.00000000      -0.00000000       22       0.00000000       0.00000000       0.00000000 
Ti       3.87763904      -0.00000000       1.37507490       22      -0.00000000       0.00000000       0.00000000 
Ti       6.46273174       0.00000000       1.37507490       22       0.00000000       0.00000000       0.00000000 
3
Lattice="3.840537853226851 -2.217335563393471 -1.4311410229294083e-17 3.840537853226851 2.2173355633934704 1.4313883650844026e-17 8.951043157681161e-22 1.7527863213115086e-17 2.725665503885399" Properties=species:S:1:pos:R:3:Z:I:1:forces:R:3 stress="-0.10924929855773902 1.7843693893822172e-17 -6.204899401698471e-22 1.7843693893822172e-17 -0.109249298557739 1.119112114946066e-21 -6.204899401698471e-22 1.119112114946066e-21 -0.1092716273455805" energy=-17.8006701863 Minim_Constant_Volume=T Minim_Hydrostatic_Strain=F pbc="T T T"
Ti       1.28017928      -0.00000000       0.00000000       22       0.00000000       0.00000000       0.00000000 
Ti       3.84053785      -0.00000000       1.36283275       22      -0.00000000      -0.00000000      -0.00000000 
Ti       6.40089642      -0.00000000       1.36283275       22       0.00000000       0.00000000       0.00000000 
3
Lattice="4.053648674160278 -2.340375153226607 -5.584732017978531e-18 4.053648674160278 2.340375153226607 5.576968030845526e-18 -2.731008357132437e-21 6.838629339065303e-18 2.8660269258915076" Properties=species:S:1:pos:R:3:Z:I:1:forces:R:3 stress="0.015729771950141684 3.3600520253998862e-18 1.0844771426205567e-22 3.3600520253998862e-18 0.015729771950141695 -7.398557915684488e-20 1.0844771426205567e-22 -7.398557915684488e-20 0.015751209291393356" energy=-18.1202783161 Minim_Constant_Volume=T Minim_Hydrostatic_Strain=F pbc="T T T"
Ti       1.35121622      -0.00000000      -0.00000000       22       0.00000000       0.00000000       0.00000000 
Ti       4.05364867       0.00000000       1.43301346       22      -0.00000000       0.00000000       0.00000000 
Ti       6.75608112       0.00000000       1.43301346       22      -0.00000000       0.00000000      -0.00000000 
3
Lattice="4.085826423439215 -2.3589529854347178 -5.887492990336341e-18 4.085826423439215 2.3589529854347178 5.879529580122234e-18 -2.800353228768371e-21 7.206700428429332e-18 2.889868777682992" Properties=species:S:1:pos:R:3:Z:I:1:forces:R:3 stress="0.0289052617069718 -1.6125447204445656e-18 8.818453516364283e-22 -1.6125447204445656e-18 0.028905261706971774 -1.4441930510698683e-19 8.818453516364283e-22 -1.4441930510698683e-19 0.02890755044032502" energy=-18.0903293484 Minim_Constant_Volume=T Minim_Hydrostatic_Strain=F pbc="T T T"
Ti       1.36194214      -0.00000000      -0.00000000       22       0.00000000       0.00000000       0.00000000 
Ti       4.08582642       0.00000000       1.44493439       22       0.00000000      -0.00000000      -0.00000000 
Ti       6.80971071       0.00000000       1.44493439       22      -0.00000000       0.00000000       0.00000000 
3
Lattice="4.1189469752253265 -2.3780751449241384 -6.31046264857159e-18 4.1189469752253265 2.3780751449241384 6.2998756821059495e-18 -3.7299924288938466e-21 7.728263765676202e-18 2.9112845989463625" Properties=species:S:1:pos:R:3:Z:I:1:forces:R:3 stress="0.04158652874031959 -1.8165845314697684e-18 1.3414390296045648e-22 -1.8165845314697684e-18 0.04158652874031957 -2.1927449008198853e-19 1.3414390296045648e-22 -2.1927449008198853e-19 0.0416198800384486" energy=-18.0434153741 Minim_Constant_Volume=T Minim_Hydrostatic_Strain=F pbc="T T T"
Ti       1.37298233      -0.00000000      -0.00000000       22       0.00000000       0.00000000       0.00000000 
Ti       4.11894698       0.00000000       1.45564230       22       0.00000000      -0.00000000      -0.00000000 
Ti       6.86491163       0.00000000       1.45564230       22       0.00000000       0.00000000       0.00000000 
3
Lattice="4.151439752284454 -2.3968348585059442 -6.8868611894956836e-18 4.151439752284454 2.3968348585059442 6.875865886332407e-18 -3.876408271484643e-21 8.438263173122626e-18 2.932539202959876" Properties=species:S:1:pos:R:3:Z:I:1:forces:R:3 stress="0.0529070486555586 2.2593797108172623e-17 -4.028792919323105e-23 2.2593797108172623e-17 0.052907048655558564 -1.1289490018151824e-21 -4.028792919323105e-23 -1.1289490018151824e-21 0.052929764772939314" energy=-17.9805969608 Minim_Constant_Volume=T Minim_Hydrostatic_Strain=F pbc="T T T"
Ti       1.38381325      -0.00000000      -0.00000000       22       0.00000000       0.00000000       0.00000000 
Ti       4.15143975       0.00000000       1.46626960       22      -0.00000000       0.00000000      -0.00000000 
Ti       6.91906625       0.00000000       1.46626960       22       0.00000000      -0.00000000       0.00000000 
3
Lattice="4.183347364081014 -2.415256726765886 -7.649831241098692e-18 4.183347364081014 2.415256726765886 7.638332741948007e-18 -4.056023631154513e-21 9.37581105003057e-18 2.953611030492033" Properties=species:S:1:pos:R:3:Z:I:1:forces:R:3 stress="0.06301040217354843 -4.243726916717815e-20 6.495623648999301e-23 -4.243726916717815e-20 0.06301040217354838 -1.271737254425438e-21 6.495623648999301e-23 -1.271737254425438e-21 0.06302615305912018" energy=-17.9035867615 Minim_Constant_Volume=T Minim_Hydrostatic_Strain=F pbc="T T T"
Ti       1.39444912      -0.00000000      -0.00000000       22       0.00000000       0.00000000       0.00000000 
Ti       4.18334736       0.00000000       1.47680552       22      -0.00000000       0.00000000       0.00000000 
Ti       6.97224561       0.00000000       1.47680552       22       0.00000000       0.00000000      -0.00000000 
3
Lattice="4.214950021878106 -2.4335025297521455 -7.690325327497187e-18 4.214950021878106 2.4335025297521455 7.691144347746697e-18 2.8988207197459527e-22 9.438714677610223e-18 2.9741413116455053" Properties=species:S:1:pos:R:3:Z:I:1:forces:R:3 stress="0.07181289773290223 7.64280193363875e-18 -7.259906472715546e-22 7.64280193363875e-18 0.07181289773290213 4.235653153260575e-25 -7.259906472715546e-22 4.235653153260575e-25 0.07182380310649412" energy=-17.8139092024 Minim_Constant_Volume=T Minim_Hydrostatic_Strain=F pbc="T T T"
Ti       1.40498334      -0.00000000       0.00000000       22       0.00000000       0.00000000       0.00000000 
Ti       4.21495002       0.00000000       1.48707066       22      -0.00000000       0.00000000       0.00000000 
Ti       7.02491670       0.00000000       1.48707066       22      -0.00000000      -0.00000000      -0.00000000 
