53
Lattice="9.74040464346422 -9.919302621175064e-09 -1.7224034100274621e-10 -9.919302621128994e-09 9.740404645262998 2.3079467600860823e-09 -1.7224034101391902e-10 2.3079467600546395e-09 9.740404648340446" Properties=species:S:1:pos:R:3:Z:I:1 energy=-316.894520212 pbc="T T T"
Ti       1.62836791       1.62201813       1.62987766       22 
Ti       0.01523030      -0.00234153       3.24446018       22 
Ti       1.63919290       1.63107512       4.86550758       22 
Ti       0.00542560      -0.00463418       6.48894580       22 
Ti       1.62582039       1.60426797       8.09975470       22 
Ti      -0.00562288       3.23667324       0.00314247       22 
Ti       1.61432053       4.85607928       1.63805726       22 
Ti      -0.00225777       3.24747683       3.23255407       22 
Ti       1.61795694       4.87131155       4.85869239       22 
Ti       0.00375698       3.24079516       6.49068616       22 
Ti       1.61738370       4.88872510       8.11686890       22 
Ti      -0.01057712       6.50182855      -0.01220843       22 
Ti       1.62548940       8.09740717       1.61011892       22 
Ti       0.00196861       6.50098776       3.24851523       22 
Ti       1.62224428       8.11399283       4.85541711       22 
Ti      -0.00719845       6.48899671       6.50417432       22 
Ti       1.62683695       8.09937347       8.12024472       22 
Ti       3.24295072      -0.00676922       0.00611676       22 
Ti       4.88051232       1.63271357       1.61500860       22 
Ti       3.24370942       0.00331263       3.25655700       22 
Ti       4.86541058       1.62154418       4.85913897       22 
Ti       3.23483948       0.00812526       6.50716550       22 
Ti       4.86948222       1.63343610       8.12062023       22 
Ti       3.24035035       3.25041550       0.01538037       22 
Ti       4.86984406       4.88584875       1.59720332       22 
Ti       3.25502057       3.24767202       3.24381148       22 
Ti       4.87111992       4.85032663       4.86800561       22 
Ti       3.25037267       3.26158049       6.48842040       22 
Ti       4.86211738       4.86518475       8.12615790       22 
Ti       3.25008905       6.48830549       0.00513268       22 
Ti       4.87117309       8.12669032       1.61638025       22 
Ti       3.24352492       6.48968201       3.23216640       22 
Ti       4.87316352       8.11961442       4.87025346       22 
Ti       3.24445567       6.47944939       6.48939665       22 
Ti       4.86677517       8.10898110       8.11539102       22 
Ti       6.49764360       0.01886185       0.00174578       22 
Ti       8.11957937       1.62265631       1.60421306       22 
Ti       6.49333796       0.00060230       3.27143397       22 
Ti       8.11508026       1.62641624       4.86985521       22 
Ti       6.48191632       0.01142822       6.50112243       22 
Ti       8.12491419       1.61430689       8.13103182       22 
Ti       6.47958458       3.25267011       0.02190456       22 
Ti       8.10709850       4.86453934       1.62439729       22 
Ti       6.48856834       3.23129491       3.24748718       22 
Ti       8.10638083       4.87493824       4.86100808       22 
Ti       6.50910244       3.23896901       6.49038248       22 
Ti       8.12513904       4.85789367       8.11927847       22 
Ti       6.50667452       6.47752826       0.00184634       22 
Ti       8.11960269       8.12482209       1.61103127       22 
Ti       6.48039852       6.49882251       3.24977140       22 
Ti       8.11950879       8.12046835       4.86340208       22 
Ti       6.49592563       6.49653382       6.48645959       22 
Ti       8.13566161       8.12174219       8.10509084       22 
53
Lattice="9.74040464346422 -9.919302621175064e-09 -1.7224034100274621e-10 -9.919302621128994e-09 9.740404645262998 2.3079467600860823e-09 -1.7224034101391902e-10 2.3079467600546395e-09 9.740404648340446" Properties=species:S:1:pos:R:3:Z:I:1:forces:R:3 pbc="T T T"
Ti       1.61536273       1.61039243       1.61598828       22      -0.21355944      -0.20372888      -0.21686226 
Ti       0.01201909      -0.00183353       3.27004098       22      -0.02528503       0.00825040       0.37960461 
Ti       1.63384759       1.63056448       4.86728496       22       0.03106870       0.06226371       0.00674915 
Ti       0.00604840      -0.00294070       6.45997941       22       0.01447327       0.00691086      -0.39650785 
Ti       1.61305358       1.59843569       8.11690352       22      -0.21252145      -0.16131541       0.25431195 
Ti       0.00108397       3.26385528       0.00065542       22       0.04647053       0.39622395      -0.01319199 
Ti       1.61252579       4.86008186       1.63340537       22       0.05493766       0.04980615       0.01624552 
Ti      -0.00529317       3.24427839       3.23694482       22      -0.02329002      -0.02819118       0.04561762 
Ti       1.61666587       4.87152084       4.86012088       22       0.01727825      -0.00915421       0.00301244 
Ti       0.00213274       3.24130186       6.49242993       22      -0.00951831       0.01909184       0.00635916 
Ti       1.61706479       4.88400165       8.11841293       22       0.06212901      -0.03590884      -0.04885784 
Ti      -0.01258764       6.47183679      -0.00777847       22      -0.00721774      -0.42208301       0.03945103 
Ti       1.61211927       8.11428145       1.60197223       22      -0.21625133       0.25152680      -0.17662999 
Ti      -0.00075785       6.50102293       3.24577102       22      -0.02477060      -0.00871529      -0.02693258 
Ti       1.62354161       8.11323267       4.85980537       22       0.07681781      -0.07664328       0.04968923 
Ti      -0.00703165       6.49004724       6.49932783       22       0.00510691       0.01238831      -0.04919370 
Ti       1.61519519       8.11469759       8.13084166       22      -0.20935814       0.22556552       0.18755260 
Ti       3.27104190      -0.00415146       0.00317287       22       0.39595765       0.01888991      -0.02947033 
Ti       4.87619174       1.62345706       1.61668823       22      -0.04045742      -0.00091385       0.09460930 
Ti       3.24344119      -0.00025259       3.25036005       22       0.00328239      -0.02258116      -0.05281084 
Ti       4.86505595       1.62110568       4.86501858       22      -0.00846985       0.03351642       0.05580686 
Ti       3.23870709       0.00320395       6.50455244       22       0.04376858      -0.04176245      -0.03902914 
Ti       4.86631850       1.63286557       8.12175047       22      -0.02885744       0.07296468      -0.05236420 
Ti       3.23597438       3.24709376       0.00943795       22      -0.01523931      -0.01079949      -0.04419674 
Ti       4.87145490       4.88407512       1.60400394       22       0.01285011      -0.04167024       0.09430922 
Ti       3.25190025       3.24553147       3.23836196       22      -0.03228131      -0.02701856      -0.06355999 
Ti       4.87415953       4.85586005       4.86987638       22       0.02589781       0.04431181       0.00279158 
Ti       3.24397764       3.25697437       6.49496807       22      -0.07412760      -0.06025908       0.06144116 
Ti       4.86558530       4.86606193       8.12298104       22       0.03714078       0.00470182      -0.04150258 
Ti       3.24856424       6.49043541       0.00473813       22      -0.01941337       0.00713764       0.00028098 
Ti       4.87421545       8.12693758       1.61649839       22       0.02125252      -0.07294147       0.06829338 
Ti       3.24404428       6.49446088       3.23316735       22      -0.00666831       0.04089491      -0.00938895 
Ti       4.86925776       8.11944014       4.87325312       22      -0.03812594      -0.01325212       0.02369151 
Ti       3.24412282       6.48457067       6.49016704       22      -0.02633672       0.05438250       0.02509725 
Ti       4.86857527       8.11017141       8.11683137       22       0.00476894      -0.05900709      -0.04694163 
Ti       6.46894534       0.01084105      -0.00294172       22      -0.40396381      -0.05601106      -0.04368500 
Ti       8.13178031       1.60626763       1.59833132       22       0.19861779      -0.22730050      -0.15345612 
Ti       6.49594818      -0.00056610       3.26285544       22       0.01222661       0.00722879      -0.07566695 
Ti       8.11897246       1.62360202       4.87006838       22      -0.03308374       0.03102184      -0.00185713 
Ti       6.48505342       0.00873942       6.50094944       22       0.02885677      -0.01589117      -0.01441567 
Ti       8.13693752       1.60353905       8.13964958       22       0.20425322      -0.18802477       0.18083057 
Ti       6.48519249       3.25108114       0.01392876       22       0.05527102      -0.01587226      -0.06076913 
Ti       8.11161209       4.86771731       1.62684604       22      -0.03229317       0.01872455       0.07929767 
Ti       6.49431919       3.23099673       3.24269718       22       0.04618232      -0.01060905      -0.07313075 
Ti       8.10934839       4.87336192       4.86159991       22       0.00267872      -0.01625530       0.00317341 
Ti       6.51069277       3.23591692       6.49472858       22       0.00940264      -0.04381974       0.05631106 
Ti       8.12356866       4.85732597       8.11824648       22      -0.08389245      -0.00730167      -0.06900782 
Ti       6.50823667       6.48606605      -0.00218617       22      -0.00121192       0.06037735      -0.03780176 
Ti       8.12867192       8.13754370       1.60203516       22       0.19199971       0.21011605      -0.17337709 
Ti       6.48553729       6.50366319       3.24524367       22       0.05618193       0.05090480      -0.05832191 
Ti       8.11932894       8.12061497       4.86584961       22      -0.06601579      -0.06249122       0.03410677 
Ti       6.49840310       6.49833261       6.49221832       22       0.04241280       0.02168159       0.06979608 
Ti       8.13923927       8.13697935       8.12052400       22       0.15092577       0.23064011       0.23049984 
53
Lattice="9.74040464346422 -9.919302621175064e-09 -1.7224034100274621e-10 -9.919302621128994e-09 9.740404645262998 2.3079467600860823e-09 -1.7224034101391902e-10 2.3079467600546395e-09 9.740404648340446" Properties=species:S:1:pos:R:3:Z:I:1:forces:R:3 pbc="T T T"
Ti       1.58502430       1.58239259       1.58470533       22      -0.22921518      -0.23377908      -0.22015442 
Ti       0.00666563      -0.00093947       3.32121729       22       0.00286170      -0.00518302       0.26897282 
Ti       1.63004788       1.63352317       4.86964182       22       0.16585172       0.13746867      -0.01583631 
Ti       0.00743943      -0.00071569       6.40523506       22       0.00749392      -0.01267875      -0.21477586 
Ti       1.58323953       1.57917480       8.15342650       22      -0.22549611      -0.24932079       0.21541114 
Ti       0.01077635       3.31745890      -0.00268639       22      -0.04041997       0.26033879       0.02228875 
Ti       1.61413379       4.86780300       1.62961604       22       0.15459821       0.02402121       0.14403685 
Ti      -0.00974671       3.23784190       3.24317986       22       0.01406791      -0.02071081      -0.01813423 
Ti       1.61578462       4.87123799       4.86203138       22       0.03556006      -0.01509373      -0.01307462 
Ti      -0.00030891       3.24184342       6.49600993       22       0.00761765      -0.00118169       0.00971493 
Ti       1.62040525       4.87755472       8.11689587       22       0.13844692       0.03306769      -0.14644595 
Ti      -0.01525488       6.41492507      -0.00052712       22       0.01492737      -0.22808957      -0.00875535 
Ti       1.58133178       8.15120027       1.57944764       22      -0.22500006       0.23365748      -0.24060749 
Ti      -0.00502336       6.50225815       3.24065770       22       0.00359082       0.02226848      -0.00713370 
Ti       1.62948691       8.10787535       4.86769685       22       0.13768923      -0.14522647       0.00783681 
Ti      -0.00673928       6.49357392       6.49311516       22      -0.00124436       0.02877560       0.03151314 
Ti       1.58648014       8.14831382       8.15656512       22      -0.24213376       0.21578664       0.21502251 
Ti       3.32469945      -0.00036182      -0.00223860       22       0.22974498      -0.01952948      -0.00698707 
Ti       4.86928047       1.61321198       1.62316104       22       0.00535504       0.16345147       0.13355400 
Ti       3.24176552      -0.00547957       3.23973620       22      -0.02393060       0.00842052       0.00211190 
Ti       4.86402417       1.62170561       4.87414441       22      -0.00694560       0.04007048      -0.01410902 
Ti       3.24386319      -0.00435411       6.50087377       22      -0.02165321       0.01278671       0.01416828 
Ti       4.86122034       1.63618492       8.11897230       22       0.00404751       0.14796181      -0.15858047 
Ti       3.22963637       3.24193746       0.00053952       22       0.02633276       0.01442018       0.02321275 
Ti       4.87466735       4.87955055       1.61587358       22       0.01093587      -0.02986086       0.02131736 
Ti       3.24533212       3.24033638       3.22790260       22      -0.04984069      -0.04800102      -0.04162594 
Ti       4.87923234       4.86422292       4.87219701       22       0.00338300      -0.01129537      -0.01640754 
Ti       3.23139415       3.24737889       6.50676625       22      -0.06091165      -0.05599653       0.03838790 
Ti       4.87167233       4.86727327       8.11764375       22       0.00685034      -0.00267813      -0.01271971 
Ti       3.24454841       6.49480297       0.00449266       22      -0.02623071       0.01457860       0.00776008 
Ti       4.87863455       8.12242947       1.62035186       22      -0.01378781      -0.15893260       0.13035553 
Ti       3.24325636       6.50352649       3.23276502       22      -0.04943936       0.03793096      -0.05744016 
Ti       4.86347774       8.11908651       4.87769360       22       0.02460769      -0.01290712      -0.01966237 
Ti       3.24096935       6.49464267       6.49432782       22      -0.06816261       0.04388017       0.07720970 
Ti       4.87061693       8.10779321       8.11507553       22      -0.02508746      -0.15398202      -0.14970018 
Ti       6.41322261      -0.00137854      -0.01110753       22      -0.24840192       0.03198547      -0.00139455 
Ti       8.16000894       1.57142216       1.57882880       22       0.21608618      -0.19780681      -0.24872745 
Ti       6.50032335      -0.00181651       3.24829544       22      -0.00279783       0.01291563       0.00381291 
Ti       8.12082680       1.62195499       4.87017265       22      -0.15678717       0.12186819      -0.00232098 
Ti       6.49117265       0.00481712       6.50099524       22       0.01469260       0.01210762       0.00538335 
Ti       8.16533472       1.57733609       8.16259552       22       0.22164031      -0.21465480       0.22011184 
Ti       6.49612517       3.24646148       0.00182880       22       0.03271234      -0.03953429       0.02515217 
Ti       8.11480247       4.87208786       1.63388530       22      -0.14851305      -0.02086661       0.11925713 
Ti       6.50461105       3.22823160       3.23199766       22       0.03368532      -0.06289077      -0.06811282 
Ti       8.11331606       4.87085270       4.86266798       22      -0.03405580       0.00474974       0.00220082 
Ti       6.51413762       3.22847984       6.50403994       22       0.03156933      -0.06420348       0.05945675 
Ti       8.11702577       4.85651958       8.11278959       22      -0.13952531       0.00534550      -0.13977706 
Ti       6.51111380       6.49962942      -0.00857747       22      -0.00368281      -0.01311254       0.00712714 
Ti       8.15317568       8.16711132       1.57871874       22       0.24189114       0.21212358      -0.21925031 
Ti       6.49618174       6.51316764       3.23625784       22       0.06195055       0.05278954      -0.04191035 
Ti       8.11508371       8.11697755       4.87072532       22      -0.14543438      -0.13733569       0.01380826 
Ti       6.50517799       6.50305561       6.50405400       22       0.07104032       0.05493618       0.06163303 
Ti       8.15569279       8.17052128       8.15390332       22       0.26946659       0.20714511       0.20282605 
53
Lattice="9.74040464346422 -9.919302621175064e-09 -1.7224034100274621e-10 -9.919302621128994e-09 9.740404645262998 2.3079467600860823e-09 -1.7224034101391902e-10 2.3079467600546395e-09 9.740404648340446" Properties=species:S:1:pos:R:3:Z:I:1:forces:R:3 pbc="T T T"
Ti       1.51747315       1.51872973       1.51573917       22      -0.12902019      -0.14095286      -0.08074806 
Ti      -0.00248271       0.00003668       3.42355918       22       0.06477651      -0.04432070      -0.15439761 
Ti       1.63138360       1.64581370       4.87323686       22       0.36289654       0.24532113      -0.05042750 
Ti       0.01036652       0.00258938       6.29955813       22      -0.00633084      -0.04403787       0.29770655 
Ti       1.51661776       1.53055725       8.23162842       22      -0.11899380      -0.26151309       0.01996027 
Ti       0.02602821       3.42389345      -0.00755064       22      -0.18381258      -0.21833073       0.08589972 
Ti       1.62484200       4.88287826       1.63042639       22       0.30066926      -0.02362776       0.34142648 
Ti      -0.01698403       3.22419459       3.25185185       22       0.07012386      -0.02362404      -0.14778674 
Ti       1.61561731       4.87030069       4.86490345       22       0.04379431      -0.01745557      -0.03509939 
Ti      -0.00434411       3.24146103       6.50413744       22       0.03154520      -0.05327145       0.03232154 
Ti       1.63340244       4.86816198       8.10694922       22       0.24740351       0.15657246      -0.28664818 
Ti      -0.01910471       6.30499368       0.01157255       22       0.05547363       0.33227037      -0.11626752 
Ti       1.51312577       8.23079800       1.52493633       22      -0.12134678       0.06723740      -0.23494598 
Ti      -0.01212042       6.50684878       3.23012540       22       0.05434416       0.09417179       0.01427793 
Ti       1.64709316       8.09096762       4.88234757       22       0.21307013      -0.23116817      -0.06876599 
Ti      -0.00600583       6.50220510       6.48488864       22      -0.00464838       0.05484650       0.16958505 
Ti       1.52084580       8.22130297       8.21569606       22      -0.17526083       0.08040782       0.16039314 
Ti       3.42892263       0.00521296      -0.01221360       22      -0.28199023      -0.09279820       0.04064915 
Ti       4.85695062       1.60287777       1.64129877       22       0.08364225       0.40035107       0.17864943 
Ti       3.23617111      -0.01478886       3.21968960       22      -0.09171361       0.04446220       0.07672168 
Ti       4.86165851       1.62446310       4.88936819       22      -0.00505115       0.03309491      -0.13327920 
Ti       3.25038765      -0.01745006       6.49639563       22      -0.14538702       0.09118435       0.11535652 
Ti       4.85214255       1.64980209       8.10583405       22       0.06093193       0.25043007      -0.31304295 
Ti       3.21812071       3.23232197      -0.01418521       22       0.06901017       0.02798128       0.13124142 
Ti       4.88090402       4.87025012       1.63772455       22      -0.00010907       0.00870166      -0.11538371 
Ti       3.23006101       3.22785696       3.20599986       22      -0.09162241      -0.08768560      -0.01830515 
Ti       4.88841653       4.87850486       4.87562832       22      -0.03633418      -0.09953498      -0.04387401 
Ti       3.20502162       3.22693035       6.53071735       22      -0.04513456      -0.05420496       0.01418024 
Ti       4.88265309       4.86912380       8.10788601       22      -0.05364444      -0.01559211       0.05345926 
Ti       3.23476747       6.50456373       0.00431650       22      -0.04255603       0.04253557       0.01581316 
Ti       4.88557494       8.10643969       1.63373958       22      -0.07657572      -0.27125939       0.20901282 
Ti       3.23860800       6.52252078       3.22830287       22      -0.12304818       0.04017070      -0.13591161 
Ti       4.85452479       8.11782142       4.88440282       22       0.13186349      -0.00001018      -0.09373557 
Ti       3.23121089       6.51542765       6.50632273       22      -0.13528257       0.02696806       0.16152594 
Ti       4.87264370       8.09536362       8.10401260       22      -0.08229847      -0.29738446      -0.30849232 
Ti       6.30419854      -0.02147669      -0.02576013       22       0.26009026       0.19673945       0.08353748 
Ti       8.22348552       1.49765182       1.52964497       22       0.12664655      -0.03289458      -0.28544387 
Ti       6.50924135      -0.00345634       3.22139778       22      -0.00039051       0.02116482       0.11542306 
Ti       8.11607389       1.62557340       4.87061996       22      -0.34589236       0.26390952       0.00514699 
Ti       6.50398528      -0.00157468       6.50267315       22       0.00394924       0.05606944       0.05610736 
Ti       8.22908991       1.51820071       8.21631286       22       0.12387561      -0.13578925       0.18754783 
Ti       6.51823997       3.23528912      -0.01894705       22      -0.00024113      -0.08847154       0.15324802 
Ti       8.11324898       4.87878705       1.65276984       22      -0.31741960      -0.08847694       0.17262558 
Ti       6.52589366       3.21908650       3.20867744       22       0.03015592      -0.16086595      -0.06044913 
Ti       8.11904766       4.86651197       4.86477602       22      -0.07690502       0.04111669      -0.00030765 
Ti       6.52288234       3.21114843       6.52425279       22       0.08418001      -0.10537996       0.06654603 
Ti       8.09840418       4.85551430       8.09600296       22      -0.20588365       0.03289841      -0.23231036 
Ti       6.51749063       6.52416598      -0.01970694       22       0.01570739      -0.11323875       0.07912687 
Ti       8.21117273       8.23196464       1.52404276       22       0.18687836       0.09268982      -0.17462106 
Ti       6.51938356       6.53339513       3.21730187       22       0.08021791       0.06446606      -0.02097400 
Ti       8.10032612       8.10364615       4.88033793       22      -0.26109605      -0.23749021      -0.02322986 
Ti       6.52162998       6.51498616       6.52905419       22       0.11788544       0.11677300       0.04805163 
Ti       8.20107844       8.24225234       8.22588051       22       0.33885774       0.05684475       0.04890624 
53
Lattice="9.74040464346422 -9.919302621175064e-09 -1.7224034100274621e-10 -9.919302621128994e-09 9.740404645262998 2.3079467600860823e-09 -1.7224034101391902e-10 2.3079467600546395e-09 9.740404648340446" Properties=species:S:1:pos:R:3:Z:I:1:forces:R:3 pbc="T T T"
Ti       1.49182350       1.49462330       1.49193778       22      -0.06452753      -0.07757136      -0.02567469 
Ti      -0.00284103      -0.00180716       3.44651276       22       0.06645184      -0.04336809      -0.25229638 
Ti       1.64236210       1.65789734       4.87311271       22       0.34088103       0.21240762      -0.05321474 
Ti       0.01146007       0.00235076       6.27852544       22      -0.00981491      -0.03605227       0.39413613 
Ti       1.49137471       1.50812179       8.25851366       22      -0.05912613      -0.21265697      -0.04643320 
Ti       0.02619965       3.44651667      -0.00636502       22      -0.17895562      -0.31209693       0.08387320 
Ti       1.63794470       4.88773140       1.64111725       22       0.26579937      -0.04082870       0.32005074 
Ti      -0.01780110       3.21744486       3.24897239       22       0.07583929      -0.03639689      -0.17938842 
Ti       1.61635594       4.86985478       4.86484284       22       0.03310922      -0.01508038      -0.03585321 
Ti      -0.00496937       3.23875001       6.50923722       22       0.03671095      -0.08335494       0.05507468 
Ti       1.64579008       4.86992126       8.09511116       22       0.21492707       0.15427210      -0.25314587 
Ti      -0.01820958       6.28426180       0.01102041       22       0.04970357       0.42569535      -0.11697394 
Ti       1.48709205       8.25836778       1.49973306       22      -0.06528195      -0.00483520      -0.18344179 
Ti      -0.01262461       6.51234254       3.22528493       22       0.05813109       0.11943366      -0.00042598 
Ti       1.65979233       8.07782364       4.88559826       22       0.17907846      -0.19908104      -0.08469527 
Ti      -0.00506286       6.50720790       6.48717935       22      -0.00833932       0.07288335       0.20345399 
Ti       1.49397909       8.24756381       8.24071906       22      -0.11268390       0.02391628       0.10380708 
Ti       3.44877991       0.00389358      -0.01397411       22      -0.37288835      -0.08768728       0.04188501 
Ti       4.85455679       1.61058896       1.65414116       22       0.08934265       0.38395586       0.14202107 
Ti       3.22990938      -0.01780090       3.21310790       22      -0.11588942       0.04920390       0.06703884 
Ti       4.86031426       1.62641720       4.89077743       22      -0.00192445       0.01748080      -0.14907397 
Ti       3.24717760      -0.02049667       6.49881109       22      -0.17696185       0.10530748       0.14914365 
Ti       4.85041629       1.66281047       8.09223856       22       0.06283738       0.20917654      -0.27997035 
Ti       3.21414768       3.22823243      -0.01561138       22       0.04505363       0.00504981       0.14410679 
Ti       4.88247776       4.86759748       1.64236593       22      -0.00278202       0.02385702      -0.14885905 
Ti       3.22088182       3.22029347       3.19600145       22      -0.08766013      -0.08188169      -0.01100575 
Ti       4.89044858       4.88085166       4.87542314       22      -0.03839868      -0.10940309      -0.04236734 
Ti       3.19328708       3.21739609       6.54074672       22      -0.03518503      -0.04322315       0.00810842 
Ti       4.88448604       4.86907977       8.10662324       22      -0.06631511      -0.01556097       0.07350479 
Ti       3.22884074       6.51018607       0.00435365       22      -0.05588559       0.06386748       0.01784535 
Ti       4.88538633       8.09291403       1.64492988       22      -0.07620010      -0.23454604       0.17446206 
Ti       3.23277973       6.53086212       3.22194478       22      -0.12214167       0.03254332      -0.13155560 
Ti       4.85484284       8.11734988       4.88377316       22       0.14289916       0.00939484      -0.09400650 
Ti       3.22321265       6.52380569       6.51530585       22      -0.12715719       0.01382074       0.14866711 
Ti       4.87020381       8.08132795       8.09053232       22      -0.07413785      -0.25857518      -0.27247198 
Ti       6.28254477      -0.02170740      -0.02776466       22       0.35575810       0.19589368       0.08432263 
Ti       8.24815691       1.47287539       1.50627425       22       0.07301478       0.02317868      -0.24030565 
Ti       6.51422978      -0.00292518       3.21333601       22       0.02071799       0.01942695       0.10633098 
Ti       8.10385830       1.63561209       4.87150832       22      -0.31936330       0.24047610       0.00342129 
Ti       6.50993758      -0.00208179       6.50618164       22       0.01328277       0.05937691       0.09212230 
Ti       8.25326588       1.49585169       8.24034375       22       0.07048996      -0.08635787       0.13236146 
Ti       6.52683097       3.22819054      -0.02274153       22       0.00164619      -0.10507758       0.17384837 
Ti       8.10340921       4.87846101       1.66539421       22      -0.29573246      -0.08377249       0.13630457 
Ti       6.53553571       3.21028423       3.19751638       22       0.02249911      -0.16701058      -0.04219741 
Ti       8.11940375       4.86598598       4.86534405       22      -0.07444976       0.04000408      -0.00294543 
Ti       6.52932086       3.20119659       6.53395734       22       0.08956801      -0.09646235       0.05276984 
Ti       8.08563867       4.85645059       8.08333446       22      -0.16918352       0.03553097      -0.19926703 
Ti       6.52176291       6.53107019      -0.02180675       22       0.03797848      -0.10209888       0.09081378 
Ti       8.23524994       8.25538797       1.50137850       22       0.12957853       0.03466645      -0.12932858 
Ti       6.53091295       6.54306501       3.20863057       22       0.07243121       0.05539786      -0.01710795 
Ti       8.08727541       8.09190565       4.88336484       22      -0.23234432      -0.20283250      -0.03546152 
Ti       6.53142033       6.52306647       6.53984734       22       0.10666743       0.11513960       0.03585912 
Ti       8.22579758       8.26767009       8.25193480       22       0.28893289      -0.00554503      -0.00786564 
53
Lattice="9.74040464346422 -9.919302621175064e-09 -1.7224034100274621e-10 -9.919302621128994e-09 9.740404645262998 2.3079467600860823e-09 -1.7224034101391902e-10 2.3079467600546395e-09 9.740404648340446" Properties=species:S:1:pos:R:3:Z:I:1:forces:R:3 pbc="T T T"
Ti       1.44426408       1.44973804       1.45044063       22       0.08338665       0.05078119       0.06549387 
Ti       0.00261874      -0.00915109       3.45444314       22       0.02157188      -0.00296565      -0.14201783 
Ti       1.68370257       1.69336597       4.86905742       22       0.13198720       0.03369247      -0.03543035 
Ti       0.01346518       0.00011664       6.28069806       22      -0.01522880       0.00886471       0.20576711 
Ti       1.44401925       1.45623053       8.30328286       22       0.06933587      -0.02706953      -0.12875931 