2
Lattice="2.95 0.0 0.0 -1.4749999999999994 2.5547749411640948 0.0 0.0 0.0 4.6846000000000005" Properties=species:S:1:pos:R:3:Z:I:1:forces:R:3 energy=-12.1454205073 stress="0.0020397527401079265 6.479134498823522e-20 9.742145461669161e-30 6.479134498823522e-20 0.0020397527401079256 -1.4061575761947952e-29 9.742145461669161e-30 -1.4061575761947952e-29 -0.013422549120472882" pbc="T T T"
Ti       0.00000000       0.00000000       0.00000000       22       0.00000000      -0.00000000       0.00000000 
Ti       0.00000000       1.70318329       2.34230000       22       0.00000000      -0.00000000       0.00000000 
2
Lattice="2.942837778948489 -2.275030330420812e-19 -3.420777329548148e-29 -1.471418889474244 2.5485722757859666 5.986360326709258e-29 -5.432194399322459e-29 7.840697246847997e-29 4.759443776911098" Properties=species:S:1:pos:R:3:Z:I:1:forces:R:3 energy=-12.1499568973 stress="0.0017980591504885423 -2.9865458202468723e-19 2.196139228333182e-30 -2.9865458202468723e-19 0.0017980591504885416 -3.395688023451624e-30 2.196139228333182e-30 -3.395688023451624e-30 -0.0012986120421358725" pbc="T T T"
Ti       0.00000000      -0.00000000      -0.00000000       22      -0.00000000       0.00000000      -0.00000000 
Ti       0.00000000       1.69904818       2.37972189       22       0.00000000      -0.00000000       0.00000000 
2
Lattice="2.9390690662692895 2.5112374357824195e-19 -4.1428969222262784e-29 -1.469534533134644 2.545308474866215 7.282975093265852e-29 -6.577734258445561e-29 9.553386203295255e-29 4.770620219984904" Properties=species:S:1:pos:R:3:Z:I:1:forces:R:3 energy=-12.1501263685 stress="0.001202897494112899 -2.3472802504195774e-19 -4.662219110187677e-30 -2.3472802504195774e-19 0.0012028974941128976 -2.4779346703316533e-30 -4.662219110187677e-30 -2.4779346703316533e-30 0.0005690451855440801" pbc="T T T"
Ti       0.00000000      -0.00000000      -0.00000000       22       0.00000000       0.00000000      -0.00000000 
Ti       0.00000000       1.69687232       2.38531011       22       0.00000000       0.00000000      -0.00000000 
2
Lattice="2.9359505986499785 7.947566156090505e-19 -3.5021701756569337e-29 -1.4679752993249886 2.5426078026870127 7.585057342077877e-29 -5.590872615836028e-29 1.068245071731143e-28 4.77187686656869" Properties=species:S:1:pos:R:3:Z:I:1:forces:R:3 energy=-12.1501882474 stress="0.0005811616584921497 -2.0196428176145393e-19 1.230176734271103e-27 -2.0196428176145393e-19 0.0005811616584921493 7.1047775342204975e-28 1.230176734271103e-27 7.1047775342204975e-28 0.0006235477699059445" pbc="T T T"
Ti       0.00000000      -0.00000000      -0.00000000       22       0.00000000      -0.00000000       0.00000000 
Ti       0.00000000       1.69507187       2.38593843       22      -0.00000000       0.00000000      -0.00000000 
