2
Lattice="2.9359505986499785 7.947566156090505e-19 -3.5021701756569337e-29 -1.4679752993249886 2.5426078026870127 7.585057342077877e-29 -5.590872615836028e-29 1.068245071731143e-28 4.77187686656869" Properties=species:S:1:pos:R:3:Z:I:1:forces:R:3 stress="0.0005811616887181078 -2.480940259040081e-19 1.3134566375123232e-31 -2.480940259040081e-19 0.0005811616887181072 3.1071719852990976e-31 1.3134566375123232e-31 3.1071719852990976e-31 0.0006235477829628089" energy=-12.150188248 Minim_Constant_Volume=T Minim_Hydrostatic_Strain=F pbc="T T T"
Ti       0.00000000      -0.00000000      -0.00000000       22       0.00000000      -0.00000000      -0.00000000 
Ti       0.00000000       1.69507187       2.38593843       22      -0.00000000       0.00000000       0.00000000 
2
Lattice="2.906795489843021 6.355436638680598e-18 -6.686685929669007e-27 -1.4533977449215099 2.517358737810088 -1.1128227388350463e-26 -1.0866780958390793e-26 -2.716287449242542e-26 4.746344875176172" Properties=species:S:1:pos:R:3:Z:I:1:forces:R:3 stress="-0.005775817000774844 -9.595329152729448e-19 -1.4658763938004025e-27 -9.595329152729448e-19 -0.005775817000774841 1.9084480076136723e-27 -1.4658763938004025e-27 1.9084480076136723e-27 -0.00581592317689274" energy=-12.1479121271 Minim_Constant_Volume=T Minim_Hydrostatic_Strain=F pbc="T T T"
Ti       0.00000000      -0.00000000       0.00000000       22       0.00000000       0.00000000      -0.00000000 
Ti      -0.00000000       1.67823916       2.37317244       22      -0.00000000      -0.00000000       0.00000000 
2
Lattice="2.8764234168449088 -8.442009072117352e-18 -6.590538905923824e-27 -1.4382117084224537 2.491055751028127 -6.903877677524754e-27 -1.0650388898900307e-26 -1.895894326352128e-26 4.722807634601431" Properties=species:S:1:pos:R:3:Z:I:1:forces:R:3 stress="-0.01439276995616798 5.5744922110651354e-18 9.044277120667464e-29 5.5744922110651354e-18 -0.014392769956167985 -3.989915135579296e-28 9.044277120667464e-29 -3.989915135579296e-28 -0.014444902350997605" energy=-12.1392392647 Minim_Constant_Volume=T Minim_Hydrostatic_Strain=F pbc="T T T"
Ti       0.00000000      -0.00000000       0.00000000       22      -0.00000000       0.00000000      -0.00000000 
Ti      -0.00000000       1.66070383       2.36140382       22       0.00000000      -0.00000000       0.00000000 
2
Lattice="2.845082692690921 2.2589229702297617e-17 -4.390447632452166e-27 -1.42254134634546 2.4639138877377733 2.23600649688005e-27 -6.973392728038501e-27 5.697531136563941e-28 4.700381414776486" Properties=species:S:1:pos:R:3:Z:I:1:forces:R:3 stress="-0.03027695066778971 7.502855968188491e-18 -3.166589650650287e-27 7.502855968188491e-18 -0.03027695066778969 3.031913798676121e-27 -3.166589650650287e-27 3.031913798676121e-27 -0.030371449722000406" energy=-12.1200879541 Minim_Constant_Volume=T Minim_Hydrostatic_Strain=F pbc="T T T"
Ti       0.00000000      -0.00000000       0.00000000       22       0.00000000       0.00000000      -0.00000000 
Ti      -0.00000000       1.64260926       2.35019071       22      -0.00000000      -0.00000000       0.00000000 
2
Lattice="2.8114946551713444 4.632034559765369e-17 3.021960760490443e-28 -1.4057473275856716 2.434825793982555 9.803862552625574e-27 8.352057150962392e-28 1.947647892250171e-26 4.683223809956817" Properties=species:S:1:pos:R:3:Z:I:1:forces:R:3 stress="-0.06039921375571338 5.5484273461938983e-17 -3.295242923521253e-27 5.5484273461938983e-17 -0.06039921375571331 -1.2086452114847544e-26 -3.295242923521253e-27 -1.2086452114847544e-26 -0.06049631852525128" energy=-12.0812298362 Minim_Constant_Volume=T Minim_Hydrostatic_Strain=F pbc="T T T"
Ti       0.00000000      -0.00000000       0.00000000       22      -0.00000000      -0.00000000      -0.00000000 
Ti       0.00000000       1.62321720       2.34161190       22       0.00000000      -0.00000000       0.00000000 
2
Lattice="2.777846882199748 -3.783461163619556e-17 5.270838219207306e-28 -1.3889234410998734 2.4056859678083806 -3.3536886465014233e-28 1.2018691343929339e-27 3.567227119991452e-29 4.664112344555431" Properties=species:S:1:pos:R:3:Z:I:1:forces:R:3 stress="-0.1192990110589181 7.511125399375862e-17 7.133609361559475e-28 7.511125399375862e-17 -0.11929901105891828 2.6704228870569736e-27 7.133609361559475e-28 2.6704228870569736e-27 -0.11940911271067435" energy=-12.0039787793 Minim_Constant_Volume=T Minim_Hydrostatic_Strain=F pbc="T T T"
Ti       0.00000000      -0.00000000       0.00000000       22       0.00000000      -0.00000000       0.00000000 
Ti       0.00000000       1.60379065       2.33205617       22       0.00000000       0.00000000      -0.00000000 
2
Lattice="2.9648780643032033 1.846200530992314e-17 -3.6903085719508797e-28 -1.482439032151601 2.567659722809807 -1.094609932553546e-27 -5.990436890702932e-28 -2.4027875550183638e-27 4.79616010419553" Properties=species:S:1:pos:R:3:Z:I:1:forces:R:3 stress="0.00753750923259874 3.796564309875673e-18 -6.061508772313396e-28 3.796564309875673e-18 0.007537509232598734 1.0510081217490913e-27 -6.061508772313396e-28 1.0510081217490913e-27 0.0075335365813380805" energy=-12.1466460131 Minim_Constant_Volume=T Minim_Hydrostatic_Strain=F pbc="T T T"
Ti       0.00000000      -0.00000000      -0.00000000       22      -0.00000000      -0.00000000       0.00000000 
Ti      -0.00000000       1.71177315       2.39808005       22       0.00000000       0.00000000      -0.00000000 
2
Lattice="2.992787331585596 3.386292521544747e-17 -1.084306407198428e-27 -1.4963936657927974 2.5918298572773697 -1.1080264938030866e-27 -1.7585452130575004e-27 -3.1056585338291306e-27 4.821941939733994" Properties=species:S:1:pos:R:3:Z:I:1:forces:R:3 stress="0.015802116440774002 -4.1729981577501795e-19 3.7014900856483036e-29 -4.1729981577501795e-19 0.015802116440773985 -7.843245309024766e-29 3.7014900856483036e-29 -7.843245309024766e-29 0.015798906887208527" energy=-12.1363690313 Minim_Constant_Volume=T Minim_Hydrostatic_Strain=F pbc="T T T"
Ti       0.00000000      -0.00000000      -0.00000000       22       0.00000000      -0.00000000       0.00000000 
Ti       0.00000000       1.72788657       2.41097097       22      -0.00000000       0.00000000      -0.00000000 
2
Lattice="3.018139680101248 3.9647697837743305e-17 -1.3080763394484289e-27 -1.5090698400506233 2.613785635137521 5.892385202342231e-28 -2.1222966744095715e-27 -1.619370273435079e-28 4.854182002761728" Properties=species:S:1:pos:R:3:Z:I:1:forces:R:3 stress="0.025415512706535696 -6.395977027031773e-18 -1.962604251702806e-29 -6.395977027031773e-18 0.025415512706535658 -5.436666693276474e-28 -1.962604251702806e-29 -5.436666693276474e-28 0.02555167163245389" energy=-12.1179740513 Minim_Constant_Volume=T Minim_Hydrostatic_Strain=F pbc="T T T"
Ti       0.00000000      -0.00000000      -0.00000000       22      -0.00000000       0.00000000       0.00000000 
Ti      -0.00000000       1.74252376       2.42709100       22       0.00000000      -0.00000000      -0.00000000 
2
Lattice="3.0393817810957655 1.2290480576328461e-16 -1.999665906594232e-27 -1.519690890547882 2.632181834228528 -4.882447698460288e-28 -3.230602045476754e-27 -2.8052288040740487e-27 4.897882244577869" Properties=species:S:1:pos:R:3:Z:I:1:forces:R:3 stress="0.03475492025773662 -4.026404672504684e-18 1.9598043261616337e-28 -4.026404672504684e-18 0.03475492025773659 5.147966926623096e-28 1.9598043261616337e-28 5.147966926623096e-28 0.03482374279458143" energy=-12.0911671123 Minim_Constant_Volume=T Minim_Hydrostatic_Strain=F pbc="T T T"
Ti       0.00000000      -0.00000000      -0.00000000       22       0.00000000      -0.00000000      -0.00000000 
Ti      -0.00000000       1.75478789       2.44894112       22      -0.00000000       0.00000000       0.00000000 
2
Lattice="3.058848179696813 1.6123408255427887e-16 -2.9272401643014037e-27 -1.529424089848406 2.649040229937229 -1.4835838646634434e-27 -4.714638728619338e-27 -5.511297433780296e-27 4.945632029656381" Properties=species:S:1:pos:R:3:Z:I:1:forces:R:3 stress="0.04388118904220058 -2.8389867477490062e-18 2.781008694678144e-28 -2.8389867477490062e-18 0.043881189042200494 6.585014668911728e-28 2.781008694678144e-28 6.585014668911728e-28 0.043908803069063564" energy=-12.0561000742 Minim_Constant_Volume=T Minim_Hydrostatic_Strain=F pbc="T T T"
Ti       0.00000000      -0.00000000       0.00000000       22       0.00000000      -0.00000000      -0.00000000 
Ti      -0.00000000       1.76602682       2.47281601       22      -0.00000000       0.00000000       0.00000000 
2
Lattice="3.0744428438529936 3.3664769889459227e-16 -4.4632844595147175e-27 -1.537221421926496 2.6625456052599685 -3.849989394788246e-27 -7.166030602315616e-27 -1.1325927473101656e-26 5.00432127028794" Properties=species:S:1:pos:R:3:Z:I:1:forces:R:3 stress="0.05429177188723816 -3.945127083689282e-17 6.398053851523857e-28 -3.945127083689282e-17 0.054291771887238126 1.480220505015254e-27 6.398053851523857e-28 1.480220505015254e-27 0.05429186097390446" energy=-12.012556903 Minim_Constant_Volume=T Minim_Hydrostatic_Strain=F pbc="T T T"
Ti       0.00000000      -0.00000000       0.00000000       22      -0.00000000       0.00000000       0.00000000 
Ti       0.00000000       1.77503040       2.50216064       22       0.00000000      -0.00000000      -0.00000000 
