2
Lattice="3.2763360463404387 -1.5012089828829043e-27 -5.440678136253941e-28 -1.5012089828829043e-27 3.2763360463404387 1.226663828363672e-27 -5.440678136253941e-28 1.226663828363672e-27 3.2763360463404387" Properties=species:S:1:pos:R:3:Z:I:1:forces:R:3 stress="-0.0009037307677776474 -1.7559020893224114e-28 -5.016863112349747e-29 -1.7559020893224114e-28 -0.0009037307677776472 3.7609224012355655e-20 -5.016863112349747e-29 3.7609224012355655e-20 -0.0009037307677776476" energy=-12.0098870158 Minim_Constant_Volume=T Minim_Hydrostatic_Strain=F pbc="T T T"
Ti      -0.00000000       0.00000000      -0.00000000       22       0.00000000       0.00000000      -0.00000000 
Ti       1.63816802       1.63816802       1.63816802       22       0.00000000       0.00000000      -0.00000000 
2
Lattice="3.248802508919204 -1.4885931848931136e-27 -5.394955990252232e-28 -1.4885931848931136e-27 3.248802508919204 1.2163552415936271e-27 -5.394955990252232e-28 1.2163552415936271e-27 3.248802508919204" Properties=species:S:1:pos:R:3:Z:I:1:forces:R:3 stress="-0.018391069566623765 -1.0204518165179995e-28 -9.891671438361163e-45 -1.0204518165179995e-28 -0.018391069566623758 -3.080270757935997e-18 -9.891671438361163e-45 -3.080270757935997e-18 -0.01839106956662375" energy=-12.0015302558 Minim_Constant_Volume=T Minim_Hydrostatic_Strain=F pbc="T T T"
Ti      -0.00000000       0.00000000      -0.00000000       22      -0.00000000      -0.00000000       0.00000000 
Ti       1.62440125       1.62440125       1.62440125       22       0.00000000      -0.00000000       0.00000000 
2
Lattice="3.220794197021559 -1.4757598464255607e-27 -5.348445434552333e-28 -1.4757598464255607e-27 3.220794197021559 1.2058688987361095e-27 -5.348445434552333e-28 1.2058688987361095e-27 3.220794197021559" Properties=species:S:1:pos:R:3:Z:I:1:forces:R:3 stress="-0.037175303134756435 -2.5956921600620333e-28 -2.5956921600620333e-28 -2.5956921600620333e-28 -0.037175303134756386 -1.909697582529286e-19 -2.5956921600620333e-28 -1.909697582529286e-19 -0.037175303134756386" energy=-11.977168888 Minim_Constant_Volume=T Minim_Hydrostatic_Strain=F pbc="T T T"
Ti      -0.00000000       0.00000000      -0.00000000       22       0.00000000       0.00000000       0.00000000 
Ti       1.61039710       1.61039710       1.61039710       22       0.00000000       0.00000000       0.00000000 
2
Lattice="3.1922900986323266 -1.462699339827439e-27 -5.301111576637134e-28 -1.462699339827439e-27 3.1922900986323266 1.1951969328694687e-27 -5.301111576637134e-28 1.1951969328694687e-27 3.1922900986323266" Properties=species:S:1:pos:R:3:Z:I:1:forces:R:3 stress="-0.059007484957049404 -7.398308980658018e-28 1.981689905533397e-28 -7.398308980658018e-28 -0.059007484957049404 -9.622751798741508e-34 1.981689905533397e-28 -9.622751798741508e-34 -0.059007484957049376" energy=-11.9351813559 Minim_Constant_Volume=T Minim_Hydrostatic_Strain=F pbc="T T T"
Ti      -0.00000000       0.00000000      -0.00000000       22       0.00000000      -0.00000000      -0.00000000 
Ti       1.59614505       1.59614505       1.59614505       22      -0.00000000      -0.00000000       0.00000000 
2
Lattice="3.1632676731424723 -1.4494013370480585e-27 -5.252916985609122e-28 -1.4494013370480585e-27 3.1632676731424723 1.1843309047648275e-27 -5.252916985609122e-28 1.1843309047648275e-27 3.1632676731424723" Properties=species:S:1:pos:R:3:Z:I:1:forces:R:3 stress="-0.08517999963809864 -3.767344061439187e-28 -6.4583041053243235e-28 -3.767344061439187e-28 -0.08517999963809857 7.096282745963784e-18 -6.4583041053243235e-28 7.096282745963784e-18 -0.08517999963809862" energy=-11.8721304207 Minim_Constant_Volume=T Minim_Hydrostatic_Strain=F pbc="T T T"
Ti      -0.00000000       0.00000000      -0.00000000       22       0.00000000       0.00000000       0.00000000 
Ti       1.58163384       1.58163384       1.58163384       22       0.00000000       0.00000000       0.00000000 
2
Lattice="3.1337026941429142 -1.4358547376073648e-27 -5.203821431134065e-28 -1.4358547376073648e-27 3.1337026941429142 1.1732617440279131e-27 -5.203821431134065e-28 1.1732617440279131e-27 3.1337026941429142" Properties=species:S:1:pos:R:3:Z:I:1:forces:R:3 stress="-0.11648890039797317 -4.9269870403622863e-29 -2.0301149021062445e-46 -4.9269870403622863e-29 -0.11648890039797306 1.3533096701312875e-17 -2.0301149021062445e-46 1.3533096701312875e-17 -0.11648890039797316" energy=-11.7839477193 Minim_Constant_Volume=T Minim_Hydrostatic_Strain=F pbc="T T T"
Ti      -0.00000000       0.00000000      -0.00000000       22       0.00000000       0.00000000       0.00000000 
Ti       1.56685135       1.56685135       1.56685135       22       0.00000000       0.00000000       0.00000000 
2
Lattice="3.3034144317161265 -1.513616231343682e-27 -5.4856444575332e-28 -1.513616231343682e-27 3.3034144317161265 1.236802005705996e-27 -5.4856444575332e-28 1.236802005705996e-27 3.3034144317161265" Properties=species:S:1:pos:R:3:Z:I:1:forces:R:3 stress="0.014674189291880909 2.9609717100176555e-28 1.8506073187610336e-29 2.9609717100176555e-28 0.014674189291880907 1.163981211350112e-19 1.8506073187610336e-29 1.163981211350112e-19 0.014674189291880914" energy=-12.0036977759 Minim_Constant_Volume=T Minim_Hydrostatic_Strain=F pbc="T T T"
Ti      -0.00000000       0.00000000      -0.00000000       22       0.00000000       0.00000000       0.00000000 
Ti       1.65170722       1.65170722       1.65170722       22       0.00000000       0.00000000       0.00000000 
2
Lattice="3.330056021201603 -1.5258233410199158e-27 -5.529885436290733e-28 -1.5258233410199158e-27 3.330056021201603 1.2467766461853971e-27 -5.529885436290733e-28 1.2467766461853971e-27 3.330056021201603" Properties=species:S:1:pos:R:3:Z:I:1:forces:R:3 stress="0.028646637278306297 4.8563060857439124e-29 -1.0012993685807144e-46 4.8563060857439124e-29 0.028646637278306287 9.712600264375813e-29 -1.0012993685807144e-46 9.712600264375813e-29 0.028646637278306287" energy=-11.9845410038 Minim_Constant_Volume=T Minim_Hydrostatic_Strain=F pbc="T T T"
Ti      -0.00000000       0.00000000      -0.00000000       22      -0.00000000       0.00000000       0.00000000 
Ti       1.66502801       1.66502801       1.66502801       22      -0.00000000       0.00000000       0.00000000 
2
Lattice="3.356278014387296 -1.5378381927209265e-27 -5.573429634137517e-28 -1.5378381927209265e-27 3.356278014387296 1.256594189347496e-27 -5.573429634137517e-28 1.256594189347496e-27 3.356278014387296" Properties=species:S:1:pos:R:3:Z:I:1:forces:R:3 stress="0.04123237052687038 -3.1986963085283895e-45 -4.481924655816745e-29 -3.1986963085283895e-45 0.041232370526870385 -3.841019132766627e-18 -4.481924655816745e-29 -3.841019132766627e-18 0.041232370526870385" energy=-11.9537501443 Minim_Constant_Volume=T Minim_Hydrostatic_Strain=F pbc="T T T"
Ti      -0.00000000       0.00000000      -0.00000000       22       0.00000000       0.00000000      -0.00000000 
Ti       1.67813901       1.67813901       1.67813901       22      -0.00000000       0.00000000       0.00000000 
2
Lattice="3.382096552190166 -1.5496681821745e-27 -5.6163038546531515e-28 -1.5496681821745e-27 3.382096552190166 1.2662606783694008e-27 -5.6163038546531515e-28 1.2662606783694008e-27 3.382096552190166" Properties=species:S:1:pos:R:3:Z:I:1:forces:R:3 stress="0.052431482757976725 -2.4717038338579284e-28 -4.472606937457205e-28 -2.4717038338579284e-28 0.05243148275797672 -9.843700135857908e-18 -4.472606937457205e-28 -9.843700135857908e-18 0.05243148275797674" energy=-11.9124445413 Minim_Constant_Volume=T Minim_Hydrostatic_Strain=F pbc="T T T"
Ti      -0.00000000       0.00000000      -0.00000000       22       0.00000000       0.00000000       0.00000000 
Ti       1.69104828       1.69104828       1.69104828       22       0.00000000       0.00000000       0.00000000 
2
Lattice="3.40752680443729 -1.561320260157466e-27 -5.658533288827003e-28 -1.561320260157466e-27 3.40752680443729 1.2757817928510958e-27 -5.658533288827003e-28 1.2757817928510958e-27 3.40752680443729" Properties=species:S:1:pos:R:3:Z:I:1:forces:R:3 stress="0.06193751958296428 5.101797947871548e-28 4.174198320985813e-28 5.101797947871548e-28 0.06193751958296417 -2.928959272367315e-18 4.174198320985813e-28 -2.928959272367315e-18 0.06193751958296419" energy=-11.8620470949 Minim_Constant_Volume=T Minim_Hydrostatic_Strain=F pbc="T T T"
Ti      -0.00000000       0.00000000      -0.00000000       22       0.00000000       0.00000000       0.00000000 
Ti       1.70376340       1.70376340       1.70376340       22       0.00000000       0.00000000       0.00000000 
2
Lattice="3.4325830484305757 -1.572800968493853e-27 -5.700141645522642e-28 -1.572800968493853e-27 3.4325830484305757 1.2851628782301578e-27 -5.700141645522642e-28 1.2851628782301578e-27 3.4325830484305757" Properties=species:S:1:pos:R:3:Z:I:1:forces:R:3 stress="0.06989265301075906 -4.284876417799751e-29 -6.855802268479599e-29 -4.284876417799751e-29 0.06989265301075907 5.299005573158883e-18 -6.855802268479599e-29 5.299005573158883e-18 0.06989265301075905" energy=-11.8039836176 Minim_Constant_Volume=T Minim_Hydrostatic_Strain=F pbc="T T T"
Ti      -0.00000000       0.00000000      -0.00000000       22       0.00000000       0.00000000       0.00000000 
Ti       1.71629152       1.71629152       1.71629152       22       0.00000000       0.00000000       0.00000000 
