40
Lattice="4.490934413723894 -5.938844983043054e-09 -4.674925664264629e-08 -5.938845052612455e-09 4.4909345530301845 -2.917147506324867e-08 -3.305671926409991e-07 -2.0627349387481046e-07 41.75570142984422" Properties=species:S:1:pos:R:3:Z:I:1 energy=-437.413238795 pbc="T T T"
W      -0.00000004       0.00000001      -0.00000005       74 
W       0.00000004       2.24546729       1.58778506       74 
W       2.24546716       2.24546734       0.00000009       74 
W       2.24546721      -0.00000011       1.58778497       74 
W      -0.00000007      -0.00000001       3.17557009       74 
W       0.00000001       2.24546727       4.76335520       74 
W       2.24546713       2.24546732       3.17557023       74 
W       2.24546718      -0.00000013       4.76335511       74 
W      -0.00000011      -0.00000003       6.35114023       74 
W      -0.00000003       2.24546724       7.93892535       74 
W       2.24546709       2.24546730       6.35114037       74 
W       2.24546715      -0.00000015       7.93892525       74 
W      -0.00000014      -0.00000005       9.52671038       74 
W      -0.00000006       2.24546722      11.11449549       74 
W       2.24546706       2.24546728       9.52671052       74 
W       2.24546711      -0.00000017      11.11449540       74 
W      -0.00000017      -0.00000007      12.70228052       74 
W      -0.00000009       2.24546720      14.29006563       74 
W       2.24546703       2.24546726      12.70228066       74 
W       2.24546708      -0.00000019      14.29006554       74 
W      -0.00000021      -0.00000010      15.87785066       74 
W      -0.00000013       2.24546718      17.46563578       74 
W       2.24546699       2.24546724      15.87785080       74 
W       2.24546705      -0.00000021      17.46563568       74 
W      -0.00000024      -0.00000012      19.05342081       74 
W      -0.00000016       2.24546716      20.64120592       74 
W       2.24546696       2.24546722      19.05342095       74 
W       2.24546701      -0.00000023      20.64120583       74 
W      -0.00000027      -0.00000014      22.22899095       74 
W      -0.00000019       2.24546714      23.81677606       74 
W       2.24546693       2.24546719      22.22899109       74 
W       2.24546698      -0.00000025      23.81677597       74 
W      -0.00000031      -0.00000016      25.40456109       74 
W      -0.00000022       2.24546712      26.99234620       74 
W       2.24546689       2.24546717      25.40456123       74 
W       2.24546695      -0.00000027      26.99234611       74 
W      -0.00000034      -0.00000018      28.58013124       74 
W      -0.00000026       2.24546710      30.16791635       74 
W       2.24546686       2.24546715      28.58013137       74 
W       2.24546691      -0.00000029      30.16791625       74 
40
Lattice="4.490934413723894 -5.938844983043054e-09 -4.674925664264629e-08 -5.938845052612455e-09 4.4909345530301845 -2.917147506324867e-08 -3.305671926409991e-07 -2.0627349387481046e-07 41.75570142984422" Properties=species:S:1:pos:R:3:Z:I:1:forces:R:3 pbc="T T T"
W      -0.00000004      -0.00000002       0.05951596       74       0.00000115      -0.00000005       0.54015466 
W       0.00000002       2.24546724       1.53314809       74       0.00000291       0.00000044      -0.22719909 
W       2.24546712       2.24546727       0.05951619       74      -0.00000152       0.00000040       0.54014953 
W       2.24546723       0.00000008       1.53314798       74      -0.00000255      -0.00000123      -0.22719328 
W      -0.00000010       0.00000002       3.16811598       74       0.00000275      -0.00000113      -0.07390750 
W      -0.00000003       2.24546724       4.76372007       74       0.00000108       0.00000078      -0.23233265 
W       2.24546717       2.24546714       3.16811593       74      -0.00000350       0.00000135      -0.07390726 
W       2.24546717       0.00000003       4.76372005       74       0.00000086      -0.00000265      -0.23233034 
W      -0.00000000      -0.00000001       6.35199101       74      -0.00000419      -0.00000151      -0.04932808 
W      -0.00000012       2.24546721       7.93995339       74       0.00000178       0.00000100       0.01364541 
W       2.24546715       2.24546717       6.35199091       74       0.00000086       0.00000119      -0.04932817 
W       2.24546703       0.00000005       7.93995327       74       0.00000407      -0.00000022       0.01363943 
W      -0.00000004      -0.00000014       9.52671035       74      -0.00000330       0.00000069       0.01324461 
W      -0.00000008       2.24546722      11.11449548       74      -0.00000154      -0.00000166       0.00821184 
W       2.24546712       2.24546709       9.52671036       74      -0.00000168       0.00000069       0.01323431 
W       2.24546705      -0.00000004      11.11449531       74       0.00000110      -0.00000134       0.00821577 
W      -0.00000006      -0.00000007      12.70228062       74      -0.00000206       0.00000002       0.00041154 
W      -0.00000011       2.24546720      14.29006568       74      -0.00000021       0.00000068      -0.00013370 
W       2.24546703       2.24546712      12.70228051       74       0.00000152       0.00000283       0.00041812 
W       2.24546701      -0.00000001      14.29006561       74       0.00000308      -0.00000365      -0.00014016 
W      -0.00000009      -0.00000014      15.87785083       74      -0.00000302       0.00000108       0.00013871 
W      -0.00000018       2.24546715      17.46563579       74      -0.00000018      -0.00000170      -0.00041470 
W       2.24546694       2.24546709      15.87785067       74       0.00000066       0.00000469       0.00013652 
W       2.24546691      -0.00000006      17.46563561       74       0.00000384      -0.00000194      -0.00041545 
W      -0.00000011      -0.00000008      19.05342095       74      -0.00000406       0.00000119      -0.00821460 
W      -0.00000023       2.24546719      20.64120597       74       0.00000051      -0.00000082      -0.01323534 
W       2.24546698       2.24546708      19.05342081       74       0.00000093       0.00000212      -0.00821286 
W       2.24546687      -0.00000005      20.64120595       74       0.00000233      -0.00000247      -0.01323708 
W      -0.00000011      -0.00000012      22.22796313       74      -0.00000141      -0.00000069      -0.01364922 
W      -0.00000027       2.24546711      23.81592530       74      -0.00000076      -0.00000084       0.04933096 
W       2.24546703       2.24546701      22.22796299       74      -0.00000042       0.00000176      -0.01364015 
W       2.24546689      -0.00000010      23.81592543       74       0.00000269      -0.00000030       0.04932604 
W      -0.00000026      -0.00000017      25.40419629       74      -0.00000239       0.00000170       0.23232929 
W      -0.00000029       2.24546713      26.99980017       74       0.00000062      -0.00000002       0.07391494 
W       2.24546697       2.24546703      25.40419632       74       0.00000056       0.00000043       0.23232841 
W       2.24546691      -0.00000010      26.99980040       74      -0.00000008      -0.00000266       0.07390958 
W      -0.00000030      -0.00000018      28.63476851       74       0.00000018      -0.00000030       0.22719677 
W      -0.00000026       2.24546711      30.10840019       74      -0.00000033       0.00000043      -0.54015859 
W       2.24546689       2.24546704      28.63476847       74      -0.00000016       0.00000168       0.22719699 
W       2.24546689      -0.00000026      30.10840044       74       0.00000133       0.00000097      -0.54015832 
40
Lattice="4.490934413723894 -5.938844983043054e-09 -4.674925664264629e-08 -5.938845052612455e-09 4.4909345530301845 -2.917147506324867e-08 -3.305671926409991e-07 -2.0627349387481046e-07 41.75570142984422" Properties=species:S:1:pos:R:3:Z:I:1:forces:R:3 pbc="T T T"
W      -0.00000002      -0.00000003       0.08858054       74      -0.00000006      -0.00000032       0.12222121 
W       0.00000008       2.24546724       1.51193151       74      -0.00000228       0.00000207       0.18750599 
W       2.24546708       2.24546725       0.08858070       74       0.00000071      -0.00000084       0.12221389 
W       2.24546718       0.00000011       1.51193152       74       0.00000024      -0.00000049       0.18751430 
W      -0.00000005       0.00000001       3.16434853       74       0.00000159      -0.00000182      -0.00658220 
W      -0.00000002       2.24546725       4.75910482       74      -0.00000129       0.00000062      -0.23458543 
W       2.24546711       2.24546711       3.16434842       74       0.00000100       0.00000114      -0.00658078 
W       2.24546718       0.00000002       4.75910487       74      -0.00000236      -0.00000205      -0.23458312 
W      -0.00000005      -0.00000003       6.35124599       74       0.00000010      -0.00000168      -0.08076760 
W      -0.00000011       2.24546722       7.94054321       74       0.00000034       0.00000102      -0.01908513 
W       2.24546718       2.24546716       6.35124581       74       0.00000017       0.00000389      -0.08076095 
W       2.24546708       0.00000010       7.94054296       74       0.00000094      -0.00000443      -0.01908188 
W      -0.00000008      -0.00000015       9.52697976       74       0.00000159       0.00000183       0.00887588 
W      -0.00000012       2.24546719      11.11466252       74       0.00000178       0.00000025       0.01114030 
W       2.24546711       2.24546705       9.52697952       74      -0.00000031       0.00000320       0.00888090 
W       2.24546705      -0.00000002      11.11466240       74       0.00000074      -0.00000270       0.01114325 
W      -0.00000007      -0.00000006      12.70228902       74      -0.00000286      -0.00000060       0.00332070 
W      -0.00000012       2.24546721      14.29006297       74      -0.00000235      -0.00000190       0.00099243 
W       2.24546706       2.24546714      12.70228898       74      -0.00000018       0.00000192       0.00332730 
W       2.24546705      -0.00000002      14.29006278       74       0.00000258      -0.00000134       0.00099858 
W      -0.00000011      -0.00000013      15.87785370       74      -0.00000373       0.00000237      -0.00100075 
W      -0.00000019       2.24546711      17.46562735       74      -0.00000083       0.00000187      -0.00332132 
W       2.24546694       2.24546714      15.87785340       74       0.00000296       0.00000047      -0.00099388 
W       2.24546694      -0.00000005      17.46562714       74       0.00000206      -0.00000194      -0.00331933 
W      -0.00000015      -0.00000005      19.05325390       74      -0.00000225      -0.00000215      -0.01114935 
W      -0.00000024       2.24546718      20.64093676       74      -0.00000020       0.00000253      -0.00887999 
W       2.24546700       2.24546708      19.05325371       74       0.00000014       0.00000394      -0.01114213 
W       2.24546687      -0.00000005      20.64093673       74       0.00000324      -0.00000276      -0.00887615 
W      -0.00000009      -0.00000013      22.22737331       74      -0.00000210      -0.00000183       0.01907996 
W      -0.00000031       2.24546708      23.81667038       74       0.00000089      -0.00000054       0.08075808 
W       2.24546705       2.24546699      22.22737326       74      -0.00000224       0.00000038       0.01907717 
W       2.24546692      -0.00000006      23.81667048       74       0.00000033      -0.00000258       0.08075925 
W      -0.00000029      -0.00000014      25.40881150       74       0.00000248      -0.00000022       0.23458546 
W      -0.00000029       2.24546713      27.00356773       74      -0.00000118      -0.00000039       0.00658015 
W       2.24546701       2.24546700      25.40881147       74      -0.00000024       0.00000257       0.23458605 
W       2.24546690      -0.00000010      27.00356796       74       0.00000037      -0.00000076       0.00658489 
W      -0.00000029      -0.00000019      28.65598513       74      -0.00000178       0.00000128      -0.18751663 
W      -0.00000026       2.24546712      30.07933549       74      -0.00000079      -0.00000061      -0.12221764 
W       2.24546689       2.24546704      28.65598504       74       0.00000124       0.00000144      -0.18752039 
W       2.24546692      -0.00000023      30.07933584       74       0.00000050       0.00000003      -0.12221594 
40
Lattice="4.490934413723894 -5.938844983043054e-09 -4.674925664264629e-08 -5.938845052612455e-09 4.4909345530301845 -2.917147506324867e-08 -3.305671926409991e-07 -2.0627349387481046e-07 41.75570142984422" Properties=species:S:1:pos:R:3:Z:I:1:forces:R:3 pbc="T T T"
W      -0.00000001      -0.00000005       0.10379827       74      -0.00000136       0.00000047      -0.00642193 
W      -0.00000006       2.24546737       1.51901403       74       0.00000126      -0.00000116       0.10386282 
W       2.24546712       2.24546720       0.10379792       74       0.00000021       0.00000087      -0.00642419 
W       2.24546719       0.00000009       1.51901461       74       0.00000164      -0.00000211       0.10385227 
W       0.00000007      -0.00000011       3.16298519       74      -0.00000351       0.00000110       0.00489410 
W      -0.00000010       2.24546729       4.74254398       74       0.00000103      -0.00000247       0.07031439 
W       2.24546716       2.24546718       3.16298516       74      -0.00000094       0.00000196       0.00489504 
W       2.24546703      -0.00000012       4.74254420       74       0.00000285       0.00000072       0.07031331 
W      -0.00000006      -0.00000014       6.34575185       74      -0.00000068       0.00000198      -0.06479813 
W      -0.00000008       2.24546729       7.93943360       74       0.00000080      -0.00000037      -0.09444674 
W       2.24546720       2.24546741       6.34575209       74      -0.00000084      -0.00000494      -0.06480592 
W       2.24546715      -0.00000018       7.93943353       74       0.00000164       0.00000421      -0.09444477 
W       0.00000002      -0.00000003       9.52762964       74      -0.00000164      -0.00000140      -0.03426136 
W      -0.00000001       2.24546719      11.11543620       74      -0.00000117       0.00000035      -0.00255796 
W       2.24546709       2.24546725       9.52762967       74      -0.00000011      -0.00000140      -0.03426694 
W       2.24546710      -0.00000020      11.11543629       74      -0.00000044       0.00000276      -0.00255114 
W      -0.00000025      -0.00000010      12.70250948       74       0.00000270       0.00000257       0.00860104 
W      -0.00000027       2.24546709      14.29012758       74       0.00000234       0.00000024       0.00438382 
W       2.24546706       2.24546727      12.70250988       74       0.00000218      -0.00000127       0.00859372 
W       2.24546723      -0.00000012      14.29012776       74      -0.00000570      -0.00000187       0.00437512 
W      -0.00000036       0.00000003      15.87778859       74       0.00000540      -0.00000404      -0.00438481 
W      -0.00000025       2.24546722      17.46540685       74       0.00000324      -0.00000005      -0.00860807 
W       2.24546713       2.24546718      15.87778871       74      -0.00000539       0.00000125      -0.00438153 
W       2.24546709      -0.00000017      17.46540676       74      -0.00000232       0.00000405      -0.00860228 
W      -0.00000031      -0.00000018      19.05247962       74       0.00000179       0.00000335       0.00256436 
W      -0.00000026       2.24546734      20.64028665       74       0.00000266      -0.00000444       0.03425547 
W       2.24546702       2.24546734      19.05247989       74      -0.00000362      -0.00000612       0.00256131 
W       2.24546709      -0.00000023      20.64028687       74      -0.00000346       0.00000310       0.03424639 
W      -0.00000022      -0.00000025      22.22848258       74       0.00000159       0.00000188       0.09445894 
W      -0.00000026       2.24546704      23.82216391       74       0.00000193       0.00000199       0.06480985 
W       2.24546691       2.24546701      22.22848237       74       0.00000003      -0.00000006       0.09446015 
W       2.24546694      -0.00000022      23.82216408       74       0.00000016       0.00000039       0.06480309 
W      -0.00000013      -0.00000014      25.42537232       74      -0.00000109      -0.00000243      -0.07032149 
W      -0.00000037       2.24546710      27.00493096       74       0.00000232       0.00000005      -0.00489445 
W       2.24546700       2.24546716      25.42537232       74      -0.00000167       0.00000012      -0.07032400 
W       2.24546692      -0.00000015      27.00493150       74      -0.00000000      -0.00000059      -0.00489852 
W      -0.00000040      -0.00000011      28.64890193       74       0.00000071       0.00000091      -0.10385585 
W      -0.00000032       2.24546708      30.06411797       74       0.00000265      -0.00000042       0.00641934 
W       2.24546698       2.24546714      28.64890158       74      -0.00000536      -0.00000033      -0.10384867 
W       2.24546695      -0.00000022      30.06411845       74       0.00000092       0.00000069       0.00641903 
40
Lattice="4.490934413723894 -5.938844983043054e-09 -4.674925664264629e-08 -5.938845052612455e-09 4.4909345530301845 -2.917147506324867e-08 -3.305671926409991e-07 -2.0627349387481046e-07 41.75570142984422" Properties=species:S:1:pos:R:3:Z:I:1:forces:R:3 pbc="T T T"
W      -0.00000003      -0.00000005       0.10204565       74      -0.00000022       0.00000179       0.03554363 
W      -0.00000005       2.24546737       1.52292018       74       0.00000036      -0.00000170       0.04193407 
W       2.24546712       2.24546721       0.10204524       74      -0.00000004       0.00000056       0.03554439 
W       2.24546721       0.00000005       1.52292064       74      -0.00000173      -0.00000282       0.04192625 
W       0.00000002      -0.00000010       3.16329344       74       0.00000209       0.00000127       0.00393103 
W      -0.00000009       2.24546726       4.74281517       74       0.00000026      -0.00000188       0.07038419 
W       2.24546715       2.24546721       3.16329344       74       0.00000002      -0.00000147       0.00392599 
W       2.24546706      -0.00000012       4.74281538       74      -0.00000154       0.00000510       0.07038748 
W      -0.00000007      -0.00000012       6.34455664       74       0.00000021       0.00000201      -0.04796530 
W      -0.00000007       2.24546729       7.93800030       74       0.00000098      -0.00000263      -0.07509888 
W       2.24546719       2.24546736       6.34455680       74      -0.00000237      -0.00000434      -0.04796485 
W       2.24546718      -0.00000014       7.93800027       74       0.00000134       0.00000286      -0.07509581 
W      -0.00000000      -0.00000004       9.52717168       74      -0.00000209       0.00000125      -0.03785102 
W      -0.00000002       2.24546720      11.11543467       74      -0.00000096       0.00000100      -0.01106367 
W       2.24546708       2.24546725       9.52717165       74       0.00000134      -0.00000163      -0.03784924 
W       2.24546709      -0.00000017      11.11543487       74       0.00000155       0.00000170      -0.01107025 
W      -0.00000023      -0.00000007      12.70264177       74       0.00000054      -0.00000102       0.00363879 
W      -0.00000025       2.24546708      14.29019278       74       0.00000336       0.00000130       0.00281197 
W       2.24546709       2.24546726      12.70264210       74      -0.00000074       0.00000133       0.00363506 
W       2.24546716      -0.00000015      14.29019286       74      -0.00000036       0.00000037       0.00281203 
W      -0.00000030      -0.00000002      15.87772334       74      -0.00000046      -0.00000164      -0.00280457 
W      -0.00000021       2.24546723      17.46527445       74       0.00000299       0.00000032      -0.00364066 
W       2.24546707       2.24546721      15.87772354       74      -0.00000457      -0.00000145      -0.00281125 
W       2.24546707      -0.00000013      17.46527445       74      -0.00000096      -0.00000069      -0.00364437 
W      -0.00000030      -0.00000014      19.05248120       74       0.00000264       0.00000053       0.01106971 
W      -0.00000022       2.24546728      20.64074451       74      -0.00000006      -0.00000226       0.03785280 
W       2.24546697       2.24546727      19.05248146       74      -0.00000040      -0.00000044       0.01106738 
W       2.24546705      -0.00000020      20.64074461       74      -0.00000200       0.00000222       0.03784668 
W      -0.00000021      -0.00000023      22.22991602       74      -0.00000015       0.00000145       0.07509395 
W      -0.00000022       2.24546706      23.82335926       74      -0.00000055      -0.00000093       0.04797221 
W       2.24546690       2.24546702      22.22991583       74       0.00000066      -0.00000070       0.07510042 
W       2.24546695      -0.00000022      23.82335933       74       0.00000025       0.00000045       0.04796869 
W      -0.00000014      -0.00000018      25.42510103       74      -0.00000146       0.00000194      -0.07038833 
W      -0.00000034       2.24546710      27.00462270       74       0.00000111      -0.00000075      -0.00392506 
W       2.24546698       2.24546717      25.42510101       74       0.00000039      -0.00000116      -0.07038688 
W       2.24546692      -0.00000017      27.00462318       74      -0.00000133      -0.00000091      -0.00392828 
W      -0.00000040      -0.00000009      28.64499583       74       0.00000186       0.00000080      -0.04192728 
W      -0.00000028       2.24546707      30.06587057       74      -0.00000114       0.00000019      -0.03553879 
W       2.24546690       2.24546714      28.64499557       74       0.00000053       0.00000032      -0.04191835 
W       2.24546697      -0.00000021      30.06587105       74       0.00000024       0.00000103      -0.03554424 
40
Lattice="4.490934413723894 -5.938844983043054e-09 -4.674925664264629e-08 -5.938845052612455e-09 4.4909345530301845 -2.917147506324867e-08 -3.305671926409991e-07 -2.0627349387481046e-07 41.75570142984422" Properties=species:S:1:pos:R:3:Z:I:1:forces:R:3 pbc="T T T"
W      -0.00000005       0.00000000       0.10276248       74      -0.00000119      -0.00000086       0.05275011 
W      -0.00000004       2.24546733       1.52689623       74      -0.00000072       0.00000040      -0.00473298 
W       2.24546713       2.24546723       0.10276203       74       0.00000074      -0.00000066       0.05276434 
W       2.24546718      -0.00000005       1.52689645       74       0.00000101      -0.00000072      -0.00474085 
W       0.00000006      -0.00000007       3.16350988       74      -0.00000181      -0.00000004       0.01379346 
W      -0.00000008       2.24546720       4.74371550       74      -0.00000037      -0.00000030       0.04848365 
W       2.24546715       2.24546720       3.16350976       74       0.00000040       0.00000283       0.01379424 
W       2.24546703       0.00000001       4.74371580       74       0.00000300      -0.00000247       0.04847192 
W      -0.00000007      -0.00000006       6.34226280       74      -0.00000183       0.00000182      -0.01905824 
W      -0.00000003       2.24546722       7.93515116       74      -0.00000147      -0.00000223      -0.03683083 
W       2.24546712       2.24546723       6.34226296       74       0.00000038       0.00000274      -0.01906225 
W       2.24546724      -0.00000006       7.93515125       74      -0.00000019      -0.00000028      -0.03683649 
W      -0.00000006      -0.00000001       9.52596528       74       0.00000045       0.00000015      -0.04022407 
W      -0.00000004       2.24546723      11.11519442       74       0.00000170      -0.00000073      -0.02518684 
W       2.24546711       2.24546722       9.52596528       74       0.00000172      -0.00000266      -0.04021698 
W       2.24546714      -0.00000013      11.11519451       74      -0.00000114       0.00000158      -0.02518682 
W      -0.00000021      -0.00000008      12.70282563       74       0.00000128       0.00000203      -0.00734653 
W      -0.00000015       2.24546711      14.29030724       74       0.00000128       0.00000051      -0.00116911 
W       2.24546708       2.24546730      12.70282584       74      -0.00000260      -0.00000322      -0.00735259 
W       2.24546712      -0.00000017      14.29030729       74      -0.00000228       0.00000130      -0.00116798 
W      -0.00000030      -0.00000008      15.87760901       74       0.00000270      -0.00000008       0.00117187 
W      -0.00000011       2.24546725      17.46509049       74      -0.00000145      -0.00000019       0.00735377 
W       2.24546693       2.24546718      15.87760911       74       0.00000023       0.00000081       0.00116083 
W       2.24546704      -0.00000013      17.46509045       74       0.00000024       0.00000064       0.00734442 
W      -0.00000023      -0.00000012      19.05272161       74      -0.00000137      -0.00000002       0.02519437 
W      -0.00000020       2.24546721      20.64195089       74      -0.00000193      -0.00000126       0.04021756 
W       2.24546693       2.24546724      19.05272183       74       0.00000168      -0.00000097       0.02518469 
W       2.24546700      -0.00000014      20.64195079       74       0.00000046       0.00000016       0.04022558 
W      -0.00000022      -0.00000019      22.23276509       74       0.00000066      -0.00000047       0.03682492 
W      -0.00000022       2.24546705      23.82565331       74      -0.00000093       0.00000321       0.01906210 
W       2.24546690       2.24546700      22.23276506       74       0.00000197      -0.00000016       0.03682513 
W       2.24546696      -0.00000023      23.82565324       74       0.00000117       0.00000265       0.01906063 
W      -0.00000018      -0.00000015      25.42420054       74      -0.00000131      -0.00000275      -0.04846873 
W      -0.00000030       2.24546708      27.00440640       74       0.00000054       0.00000116      -0.01379225 
W       2.24546697       2.24546716      25.42420053       74      -0.00000039      -0.00000139      -0.04847196 
W       2.24546689      -0.00000021      27.00440680       74      -0.00000215      -0.00000006      -0.01380223 
W      -0.00000036      -0.00000006      28.64101994       74       0.00000200      -0.00000091       0.00473964 
W      -0.00000029       2.24546707      30.06515387       74      -0.00000162       0.00000018      -0.05275314 
W       2.24546688       2.24546716      28.64101996       74       0.00000153      -0.00000201       0.00473643 
W       2.24546699      -0.00000018      30.06515420       74       0.00000038       0.00000211      -0.05275046 
40
Lattice="4.490934413723894 -5.938844983043054e-09 -4.674925664264629e-08 -5.938845052612455e-09 4.4909345530301845 -2.917147506324867e-08 -3.305671926409991e-07 -2.0627349387481046e-07 41.75570142984422" Properties=species:S:1:pos:R:3:Z:I:1:forces:R:3 pbc="T T T"
W      -0.00000010       0.00000000       0.10579359       74       0.00000101      -0.00000047       0.03926467 
W      -0.00000006       2.24546732       1.52953038       74      -0.00000087      -0.00000060      -0.01782679 
W       2.24546715       2.24546722       0.10579341       74       0.00000044       0.00000188       0.03926225 
W       2.24546721      -0.00000013       1.52953025       74      -0.00000174       0.00000079      -0.01781524 
W       0.00000000      -0.00000006       3.16383898       74      -0.00000157       0.00000009       0.02674082 
W      -0.00000008       2.24546714       4.74485378       74      -0.00000155       0.00000174       0.01592568 
W       2.24546715       2.24546729       3.16383885       74       0.00000090      -0.00000249       0.02674420 
W       2.24546711      -0.00000000       4.74485383       74      -0.00000007      -0.00000174       0.01592462 
W      -0.00000013       0.00000002       6.33982946       74       0.00000306      -0.00000304       0.00958608 
W      -0.00000005       2.24546714       7.93205530       74       0.00000168       0.00000336       0.00162240 
W       2.24546710       2.24546721       6.33982947       74       0.00000093       0.00000139       0.00958381 
W       2.24546728      -0.00000001       7.93205533       74      -0.00000405      -0.00000058       0.00161411 
W      -0.00000008       0.00000001       9.52417337       74       0.00000203      -0.00000140      -0.03651909 
W      -0.00000001       2.24546723      11.11449770       74      -0.00000209       0.00000231      -0.03585614 
W       2.24546717       2.24546714       9.52417353       74      -0.00000048       0.00000286      -0.03652739 
W       2.24546713      -0.00000005      11.11449784       74      -0.00000015      -0.00000212      -0.03585405 
W      -0.00000016      -0.00000001      12.70281967       74      -0.00000023      -0.00000282      -0.01984832 
W      -0.00000007       2.24546712      14.29037342       74      -0.00000263       0.00000110      -0.00628864 
W       2.24546704       2.24546723      12.70281964       74       0.00000256      -0.00000086      -0.01984278 
W       2.24546700      -0.00000017      14.29037343       74      -0.00000084       0.00000255      -0.00629150 
W      -0.00000019      -0.00000013      15.87754291       74      -0.00000193       0.00000032       0.00628225 
W      -0.00000008       2.24546726      17.46509651       74      -0.00000432      -0.00000053       0.01984329 
W       2.24546683       2.24546721      15.87754275       74       0.00000571      -0.00000280       0.00628335 
W       2.24546702      -0.00000008      17.46509629       74       0.00000200       0.00000192       0.01984593 