2
Lattice="3.496503169452523 3.944209806635956e-34 -2.407976542072093e-34 3.944209806635956e-34 3.496503169452523 -1.8094709460764404e-18 -2.4079765420720936e-34 -1.8094709460764404e-18 3.496503169452523" Properties=species:S:1:pos:R:3:Z:I:1:forces:R:3 stress="-0.00014472383869060685 -1.0502226346757772e-35 1.013505187997367e-51 -1.0502226346757772e-35 -0.00014472383869060688 4.423653201114675e-36 1.013505187997367e-51 4.423653201114675e-36 -0.0001447238386906068" energy=-11.8336024885 Minim_Constant_Volume=T Minim_Hydrostatic_Strain=F pbc="T T T"
Ti      -0.00000000       0.00000000       0.00000000       22       0.00000000       0.00000000      -0.00000000 
Ti       1.74825158       1.74825158       1.74825158       22       0.00000000       0.00000000      -0.00000000 
2
Lattice="3.467119400663873 3.91106361931811e-34 -2.387740488354511e-34 3.91106361931811e-34 3.467119400663873 -1.794264588944033e-18 -2.387740488354511e-34 -1.794264588944033e-18 3.467119400663873" Properties=species:S:1:pos:R:3:Z:I:1:forces:R:3 stress="-0.005300790945092198 -1.0680992996052298e-35 4.0425510846724855e-52 -1.0680992996052298e-35 -0.0053007909450921995 -5.50938547689037e-19 4.0425510846724855e-52 -5.50938547689037e-19 -0.005300790945092201" energy=-11.8295889262 Minim_Constant_Volume=T Minim_Hydrostatic_Strain=F pbc="T T T"
Ti      -0.00000000       0.00000000       0.00000000       22      -0.00000000       0.00000000       0.00000000 
Ti       1.73355970       1.73355970       1.73355970       22      -0.00000000      -0.00000000       0.00000000 
2
Lattice="3.437228952939343 3.877345875810876e-34 -2.367155494300588e-34 3.877345875810876e-34 3.437228952939343 -1.7787960210344485e-18 -2.3671554943005886e-34 -1.7787960210344485e-18 3.437228952939343" Properties=species:S:1:pos:R:3:Z:I:1:forces:R:3 stress="-0.018974414877827625 -8.69405315026283e-35 -1.0867566437828541e-34 -8.69405315026283e-35 -0.01897441487782762 -3.620404430868093e-18 -1.0867566437828541e-34 -3.620404430868093e-18 -0.01897441487782763" energy=-11.8155713711 Minim_Constant_Volume=T Minim_Hydrostatic_Strain=F pbc="T T T"
Ti      -0.00000000       0.00000000       0.00000000       22       0.00000000       0.00000000       0.00000000 
Ti       1.71861448       1.71861448       1.71861448       22      -0.00000000       0.00000000       0.00000000 
2
Lattice="3.4068094022733915 3.843031280846876e-34 -2.3462061169157955e-34 3.843031280846876e-34 3.4068094022733915 -1.763053637728856e-18 -2.346206116915796e-34 -1.763053637728856e-18 3.4068094022733915" Properties=species:S:1:pos:R:3:Z:I:1:forces:R:3 stress="-0.01685875470786733 -8.85000547246966e-35 -8.642583469208652e-35 -8.85000547246966e-35 -0.016858754707867317 1.5941293854233358e-18 -8.642583469208652e-35 1.5941293854233358e-18 -0.01685875470786731" energy=-11.7953727565 Minim_Constant_Volume=T Minim_Hydrostatic_Strain=F pbc="T T T"
Ti      -0.00000000       0.00000000       0.00000000       22       0.00000000      -0.00000000      -0.00000000 
Ti       1.70340470       1.70340470       1.70340470       22       0.00000000      -0.00000000       0.00000000 
2
Lattice="3.37583669334635 3.808092698964439e-34 -2.3248757897499775e-34 3.808092698964439e-34 3.37583669334635 -1.747024990189109e-18 -2.324875789749978e-34 -1.747024990189109e-18 3.37583669334635" Properties=species:S:1:pos:R:3:Z:I:1:forces:R:3 stress="-0.010246427816547296 9.013144935573502e-35 4.506572467786751e-35 9.013144935573502e-35 -0.010246427816547289 -1.920145542501365e-18 4.506572467786751e-35 -1.920145542501365e-18 -0.01024642781654729" energy=-11.7811210734 Minim_Constant_Volume=T Minim_Hydrostatic_Strain=F pbc="T T T"
Ti      -0.00000000       0.00000000       0.00000000       22       0.00000000      -0.00000000       0.00000000 
Ti       1.68791835       1.68791835       1.68791835       22       0.00000000       0.00000000      -0.00000000 
2
Lattice="3.344284971754111 3.772500965255288e-34 -2.3031467073570687e-34 3.772500965255288e-34 3.344284971754111 -1.7306966985351396e-18 -2.3031467073570687e-34 -1.7306966985351396e-18 3.344284971754111" Properties=species:S:1:pos:R:3:Z:I:1:forces:R:3 stress="-0.010861148788892572 -3.6463251297526485e-37 -5.814921604599954e-52 -3.6463251297526485e-37 -0.010861148788892567 1.008159574452626e-18 -5.814921604599954e-52 1.008159574452626e-18 -0.01086114878889256" energy=-11.7707660192 Minim_Constant_Volume=T Minim_Hydrostatic_Strain=F pbc="T T T"
Ti      -0.00000000       0.00000000       0.00000000       22       0.00000000       0.00000000      -0.00000000 
Ti       1.67214249       1.67214249       1.67214249       22       0.00000000      -0.00000000      -0.00000000 
2
Lattice="3.5254012003475843 3.976808060183833e-34 -2.427878077158726e-34 3.976808060183833e-34 3.5254012003475843 -1.82442592960406e-18 -2.4278780771587266e-34 -1.82442592960406e-18 3.5254012003475843" Properties=species:S:1:pos:R:3:Z:I:1:forces:R:3 stress="-0.00402679548133866 -4.141337488014293e-35 4.132302650555017e-35 -4.141337488014293e-35 -0.00402679548133867 5.685328124589591e-35 4.132302650555017e-35 5.685328124589591e-35 -0.004026795481338669" energy=-11.8351162736 Minim_Constant_Volume=T Minim_Hydrostatic_Strain=F pbc="T T T"
Ti      -0.00000000       0.00000000       0.00000000       22       0.00000000      -0.00000000       0.00000000 
Ti       1.76270060       1.76270060       1.76270060       22       0.00000000       0.00000000       0.00000000 
2
Lattice="3.553833083023133 4.008880477978204e-34 -2.4474585846577045e-34 4.008880477978204e-34 3.553833083023133 -1.83913967735442e-18 -2.447458584657705e-34 -1.83913967735442e-18 3.553833083023133" Properties=species:S:1:pos:R:3:Z:I:1:forces:R:3 stress="-0.004947784451769531 9.108842323020426e-33 2.602526378005836e-33 9.108842323020426e-33 -0.004947784451769527 -9.937652285119324e-35 2.602526378005836e-33 -9.937652285119324e-35 -0.004947784451769525" energy=-11.8403226986 Minim_Constant_Volume=T Minim_Hydrostatic_Strain=F pbc="T T T"
Ti      -0.00000000       0.00000000       0.00000000       22      -0.00000000      -0.00000000       0.00000000 
Ti       1.77691654       1.77691654       1.77691654       22      -0.00000000      -0.00000000       0.00000000 
2
Lattice="3.5818171728681127 4.040447765707457e-34 -2.466730705583166e-34 4.040447765707457e-34 3.5818171728681127 -1.853621688401707e-18 -2.4667307055831665e-34 -1.853621688401707e-18 3.5818171728681127" Properties=species:S:1:pos:R:3:Z:I:1:forces:R:3 stress="-0.0015808281422146442 2.5620191006744877e-32 2.562019100674487e-32 2.5620191006744877e-32 -0.001580828142214645 4.687804209596615e-19 2.562019100674487e-32 4.687804209596615e-19 -0.0015808281422146444" energy=-11.8442008127 Minim_Constant_Volume=T Minim_Hydrostatic_Strain=F pbc="T T T"
Ti      -0.00000000       0.00000000       0.00000000       22       0.00000000      -0.00000000       0.00000000 
Ti       1.79090859       1.79090859       1.79090859       22      -0.00000000       0.00000000       0.00000000 
2
Lattice="3.609370695456004 4.0715293545783e-34 -2.485706302866404e-34 4.0715293545783e-34 3.609370695456004 -1.86788087713073e-18 -2.4857063028664046e-34 -1.86788087713073e-18 3.609370695456004" Properties=species:S:1:pos:R:3:Z:I:1:forces:R:3 stress="0.0073361980540441445 5.4521328523455364e-36 -2.9305397245013417e-53 5.4521328523455364e-36 0.007336198054044151 6.527800247245267e-20 -2.9305397245013417e-53 6.527800247245267e-20 0.007336198054044154" energy=-11.8417536396 Minim_Constant_Volume=T Minim_Hydrostatic_Strain=F pbc="T T T"
Ti      -0.00000000       0.00000000       0.00000000       22      -0.00000000       0.00000000       0.00000000 
Ti       1.80468535       1.80468535       1.80468535       22       0.00000000      -0.00000000      -0.00000000 
2
Lattice="3.6365098400139515 4.102143506753066e-34 -2.5043965257263118e-34 4.102143506753066e-34 3.6365098400139515 -1.881925621608014e-18 -2.504396525726312e-34 -1.881925621608014e-18 3.6365098400139515" Properties=species:S:1:pos:R:3:Z:I:1:forces:R:3 stress="0.025340712836269135 -1.9418232115484742e-35 1.7030605756371328e-51 -1.9418232115484742e-35 0.02534071283626915 -2.5577249091485343e-18 1.7030605756371328e-51 -2.5577249091485343e-18 0.025340712836269135" energy=-11.8252868901 Minim_Constant_Volume=T Minim_Hydrostatic_Strain=F pbc="T T T"
Ti      -0.00000000       0.00000000       0.00000000       22      -0.00000000      -0.00000000       0.00000000 
Ti       1.81825492       1.81825492       1.81825492       22       0.00000000      -0.00000000      -0.00000000 
2
Lattice="3.663249843266962 4.132307409929654e-34 -2.5228118674113195e-34 4.132307409929654e-34 3.663249843266962 -1.8957638069719035e-18 -2.52281186741132e-34 -1.8957638069719035e-18 3.663249843266962" Properties=species:S:1:pos:R:3:Z:I:1:forces:R:3 stress="0.05619674734958715 9.567889416123608e-36 9.56788941612361e-36 9.567889416123608e-36 0.05619674734958715 1.0360798273141211e-17 9.56788941612361e-36 1.0360798273141211e-17 0.05619674734958717" energy=-11.7829875137 Minim_Constant_Volume=T Minim_Hydrostatic_Strain=F pbc="T T T"
Ti      -0.00000000       0.00000000       0.00000000       22      -0.00000000      -0.00000000       0.00000000 
Ti       1.83162492       1.83162492       1.83162492       22      -0.00000000      -0.00000000       0.00000000 
