2
Lattice="3.179893028250687 -1.0050363619120538e-23 -4.531857228037146e-24 -1.0050363619120538e-23 3.179893028250687 -5.232014982334851e-19 -4.531857228037146e-24 -5.232014982334851e-19 3.179893028250687" Properties=species:S:1:pos:R:3:Z:I:1:forces:R:3 stress="-0.00012951334385498942 -3.817526906862508e-25 -2.1814439467785754e-25 -3.817526906862508e-25 -0.00012951334385498942 -1.8537562491317524e-20 -2.1814439467785754e-25 -1.8537562491317524e-20 -0.00012951334385498942" energy=-22.3934682412 Minim_Constant_Volume=T Minim_Hydrostatic_Strain=F pbc="T T T"
W       0.00000000       0.00000000       0.00000000       74      -0.00000000       0.00000000      -0.00000000 
W       1.58994651       1.58994651       1.58994651       74       0.00000000      -0.00000000       0.00000000 
2
Lattice="3.1531699746778834 -9.965902788824098e-24 -4.493772593612901e-24 -9.965902788824098e-24 3.1531699746778834 -5.188046391119831e-19 -4.493772593612901e-24 -5.188046391119831e-19 3.1531699746778834" Properties=species:S:1:pos:R:3:Z:I:1:forces:R:3 stress="-0.053316213204171944 1.2424025705224728e-23 1.3755171316498803e-23 1.2424025705224728e-23 -0.05331621320417204 -6.999196332468358e-18 1.3755171316498803e-23 -6.999196332468358e-18 -0.05331621320417199" energy=-22.3720447288 Minim_Constant_Volume=T Minim_Hydrostatic_Strain=F pbc="T T T"
W       0.00000000       0.00000000       0.00000000       74      -0.00000000       0.00000000      -0.00000000 
W       1.57658499       1.57658499       1.57658499       74      -0.00000000       0.00000000       0.00000000 
2
Lattice="3.1259861222046688 -9.879985558433919e-24 -4.45503124690024e-24 -9.879985558433919e-24 3.1259861222046688 -5.14331962762374e-19 -4.45503124690024e-24 -5.14331962762374e-19 3.1259861222046688" Properties=species:S:1:pos:R:3:Z:I:1:forces:R:3 stress="-0.11302583497698042 -3.250554709501264e-23 -2.167036473000842e-23 -3.250554709501264e-23 -0.11302583497698036 -8.320988114937515e-18 -2.167036473000842e-23 -8.320988114937515e-18 -0.11302583497698039" energy=-22.3062286448 Minim_Constant_Volume=T Minim_Hydrostatic_Strain=F pbc="T T T"
W       0.00000000       0.00000000       0.00000000       74       0.00000000      -0.00000000       0.00000000 
W       1.56299306       1.56299306       1.56299306       74      -0.00000000       0.00000000      -0.00000000 
2
Lattice="3.0983210773306142 -9.792547472292862e-24 -4.4156041238924494e-24 -9.792547472292862e-24 3.0983210773306142 -5.097801137541813e-19 -4.4156041238924494e-24 -5.097801137541813e-19 3.0983210773306142" Properties=species:S:1:pos:R:3:Z:I:1:forces:R:3 stress="-0.17751764912914944 2.7573854670590293e-24 -3.941603345928135e-41 2.7573854670590293e-24 -0.1775176491291493 -6.038830499055013e-18 -3.941603345928135e-41 -6.038830499055013e-18 -0.17751764912914925" energy=-22.1892855752 Minim_Constant_Volume=T Minim_Hydrostatic_Strain=F pbc="T T T"
W       0.00000000       0.00000000       0.00000000       74      -0.00000000      -0.00000000      -0.00000000 
W       1.54916054       1.54916054       1.54916054       74       0.00000000      -0.00000000       0.00000000 
2
Lattice="3.070152962957488 -9.703519385687498e-24 -4.375460046218159e-24 -9.703519385687498e-24 3.070152962957488 -5.05145492554191e-19 -4.375460046218159e-24 -5.05145492554191e-19 3.070152962957488" Properties=species:S:1:pos:R:3:Z:I:1:forces:R:3 stress="-0.2444307730005949 9.360715438786331e-25 9.360715438786327e-24 9.360715438786331e-25 -0.24443077300059513 3.9823896653919854e-47 9.360715438786327e-24 3.9823896653919854e-47 -0.24443077300059513" energy=-22.0198001517 Minim_Constant_Volume=T Minim_Hydrostatic_Strain=F pbc="T T T"
W       0.00000000       0.00000000       0.00000000       74      -0.00000000      -0.00000000      -0.00000000 
W       1.53507648       1.53507648       1.53507648       74      -0.00000000       0.00000000       0.00000000 
2
Lattice="3.0414582658106304 -9.612826982608421e-24 -4.3345655036923494e-24 -9.612826982608421e-24 3.0414582658106304 -5.004242304220334e-19 -4.3345655036923494e-24 -5.004242304220334e-19 3.0414582658106304" Properties=species:S:1:pos:R:3:Z:I:1:forces:R:3 stress="-0.3121616899717206 4.8137983721853116e-24 -3.661962266029516e-40 4.8137983721853116e-24 -0.31216168997172056 -9.809355441645745e-18 -3.661962266029516e-40 -9.809355441645745e-18 -0.31216168997172067" energy=-21.7969581933 Minim_Constant_Volume=T Minim_Hydrostatic_Strain=F pbc="T T T"
W       0.00000000       0.00000000       0.00000000       74      -0.00000000       0.00000000      -0.00000000 
W       1.52072913       1.52072913       1.52072913       74       0.00000000       0.00000000       0.00000000 
2
Lattice="3.206174327743336 -1.0133428242344495e-23 -4.5693122920942825e-24 -1.0133428242344495e-23 3.206174327743336 -5.275256736531977e-19 -4.5693122920942825e-24 -5.275256736531977e-19 3.206174327743336" Properties=species:S:1:pos:R:3:Z:I:1:forces:R:3 stress="0.04658012776591574 1.0729137691472934e-24 2.9390488970951e-40 1.0729137691472934e-24 0.04658012776591568 4.145128957469087e-18 2.9390488970951e-40 4.145128957469087e-18 0.04658012776591565" energy=-22.3741670686 Minim_Constant_Volume=T Minim_Hydrostatic_Strain=F pbc="T T T"
W       0.00000000       0.00000000       0.00000000       74      -0.00000000       0.00000000      -0.00000000 
W       1.60308716       1.60308716       1.60308716       74      -0.00000000       0.00000000       0.00000000 
2
Lattice="3.2320316889749496 -1.0215152967138659e-23 -4.606163176182015e-24 -1.0215152967138659e-23 3.2320316889749496 -5.317800966845872e-19 -4.606163176182015e-24 -5.317800966845872e-19 3.2320316889749496" Properties=species:S:1:pos:R:3:Z:I:1:forces:R:3 stress="0.0852209762905719 -6.123727497423355e-24 -1.689304137220236e-24 -6.123727497423355e-24 0.08522097629057178 2.0009728050984597e-18 -1.689304137220236e-24 2.0009728050984597e-18 0.0852209762905718" energy=-22.3206650361 Minim_Constant_Volume=T Minim_Hydrostatic_Strain=F pbc="T T T"
W       0.00000000       0.00000000       0.00000000       74       0.00000000      -0.00000000      -0.00000000 
W       1.61601584       1.61601584       1.61601584       74      -0.00000000       0.00000000       0.00000000 
2
Lattice="3.257481805244665 -1.0295590554311284e-23 -4.642433670927162e-24 -1.0295590554311284e-23 3.257481805244665 -5.359675139480719e-19 -4.642433670927162e-24 -5.359675139480719e-19 3.257481805244665" Properties=species:S:1:pos:R:3:Z:I:1:forces:R:3 stress="0.11638400725233988 8.315053985587254e-25 6.652043188469805e-24 8.315053985587254e-25 0.11638400725233992 7.649080028361919e-19 6.652043188469805e-24 7.649080028361919e-19 0.11638400725233988" energy=-22.2391974475 Minim_Constant_Volume=T Minim_Hydrostatic_Strain=F pbc="T T T"
W       0.00000000       0.00000000       0.00000000       74       0.00000000      -0.00000000      -0.00000000 
W       1.62874090       1.62874090       1.62874090       74       0.00000000      -0.00000000       0.00000000 
2
Lattice="3.2825403423415165 -1.0374790517124222e-23 -4.678146102589958e-24 -1.0374790517124222e-23 3.2825403423415165 -5.400905030034063e-19 -4.678146102589958e-24 -5.400905030034063e-19 3.2825403423415165" Properties=species:S:1:pos:R:3:Z:I:1:forces:R:3 stress="0.14219400348442315 -2.456575864627835e-24 -2.6612905200134862e-24 -2.456575864627835e-24 0.14219400348442318 6.47756227651715e-18 -2.6612905200134862e-24 6.47756227651715e-18 0.14219400348442304" energy=-22.1350907162 Minim_Constant_Volume=T Minim_Hydrostatic_Strain=F pbc="T T T"
W       0.00000000       0.00000000       0.00000000       74      -0.00000000       0.00000000      -0.00000000 
W       1.64127017       1.64127017       1.64127017       74       0.00000000      -0.00000000       0.00000000 
2
Lattice="3.3072220235498926 -1.045279938996101e-23 -4.7133214542104556e-24 -1.045279938996101e-23 3.3072220235498926 -5.441514863359959e-19 -4.7133214542104556e-24 -5.441514863359959e-19 3.3072220235498926" Properties=species:S:1:pos:R:3:Z:I:1:forces:R:3 stress="0.165341026933859 -6.453456020748254e-24 1.6133640051870627e-24 -6.453456020748254e-24 0.16534102693385927 -5.312051353934128e-17 1.6133640051870627e-24 -5.312051353934128e-17 0.16534102693385927" energy=-22.0115345436 Minim_Constant_Volume=T Minim_Hydrostatic_Strain=F pbc="T T T"
W       0.00000000       0.00000000       0.00000000       74       0.00000000      -0.00000000       0.00000000 
W       1.65361101       1.65361101       1.65361101       74      -0.00000000      -0.00000000       0.00000000 
2
Lattice="3.3315407059015985 -1.0529660969328975e-23 -4.747979474279938e-24 -1.0529660969328975e-23 3.3315407059015985 -5.481527439029764e-19 -4.747979474279938e-24 -5.481527439029764e-19 3.3315407059015985" Properties=species:S:1:pos:R:3:Z:I:1:forces:R:3 stress="0.19000523038849412 -2.3848445570811556e-24 -3.9250566668627345e-24 -2.3848445570811556e-24 0.1900052303884941 7.370250810218317e-18 -3.9250566668627345e-24 7.370250810218317e-18 0.1900052303884941" energy=-21.868686632 Minim_Constant_Volume=T Minim_Hydrostatic_Strain=F pbc="T T T"
W       0.00000000       0.00000000       0.00000000       74      -0.00000000      -0.00000000       0.00000000 
W       1.66577035       1.66577035       1.66577035       74      -0.00000000       0.00000000      -0.00000000 
