4
Lattice="1.9231452152728623 -3.330985224793209 -2.0743416335647875e-19 1.9231452152728623 3.330985224793209 2.0743416335645617e-19 -3.584416126725847e-32 3.8201810098426506e-19 6.4981147915549995" Properties=species:S:1:pos:R:3:Z:I:1:forces:R:3 cutoff=-1.0 stress="-2.3881362510747688e-05 3.775864676787453e-21 -1.8040431791254137e-36 3.775864676787453e-21 -2.388136248769609e-05 4.944365506331448e-37 -1.8040431791254137e-36 4.944365506331448e-37 5.310868330309609e-05" Minim_Constant_Volume=T nneightol=1.2 pbc="T T T" energy=-652.768854103 Minim_Hydrostatic_Strain=F
Si       1.92314522       1.11032841       0.40697939       14       0.00000000      -0.00000000      -0.00039823 
Si       1.92314522      -1.11032841       3.65603678       14       0.00000000      -0.00000000      -0.00039823 
Si       1.92314522       1.11032841       2.84207802       14      -0.00000000       0.00000000       0.00039823 
Si       1.92314522      -1.11032841      -0.40697939       14      -0.00000000       0.00000000       0.00039823 
4
Lattice="1.906783519510022 -3.302645936365411 1.0729887641490655e-17 1.906783519510022 3.302645936365411 -1.072988764149068e-17 -4.1574761117066e-32 -2.0956138772793468e-17 6.444858201641544" Properties=species:S:1:pos:R:3:Z:I:1:forces:R:3 cutoff=-1.0 stress="-0.012331353420607979 -1.9090257309493463e-18 -1.632547099285643e-33 -1.9090257309493463e-18 -0.012331353409115014 -1.2094454789449206e-33 -1.632547099285643e-33 -1.2094454789449206e-33 -0.012294460122896088" Minim_Constant_Volume=T nneightol=1.2 pbc="T T T" energy=-652.756071987 Minim_Hydrostatic_Strain=F
Si       1.90678352       1.10088198       0.40479223       14       0.00000000      -0.00000000       0.00108495 
Si       1.90678352      -1.10088198       3.62722133       14       0.00000000      -0.00000000       0.00108495 
Si       1.90678352       1.10088198       2.81763687       14      -0.00000000       0.00000000      -0.00108495 
Si       1.90678352      -1.10088198      -0.40479223       14      -0.00000000       0.00000000      -0.00108495 
4
Lattice="1.891630182700624 -3.2763995870030986 1.0622913511994639e-17 1.891630182700624 3.2763995870030986 -1.062291351199467e-17 -5.211021141760964e-32 -2.078959892864622e-17 6.3806046773846905" Properties=species:S:1:pos:R:3:Z:I:1:forces:R:3 cutoff=-1.0 stress="-0.024914070046847356 -2.5686818101680345e-19 1.0553989123427397e-32 -2.5686818101680345e-19 -0.024914070025026314 -7.193992857439013e-18 1.0553989123427397e-32 -7.193992857439013e-18 -0.024859564026717285" Minim_Constant_Volume=T nneightol=1.2 pbc="T T T" energy=-652.717493129 Minim_Hydrostatic_Strain=F
Si       1.89163018       1.09213320       0.40160797       14      -0.00000000      -0.00000000       0.00140177 
Si       1.89163018      -1.09213320       3.59191030       14       0.00000000      -0.00000000       0.00140177 
Si       1.89163018       1.09213320       2.78869438       14      -0.00000000       0.00000000      -0.00140177 
Si       1.89163018      -1.09213320      -0.40160797       14       0.00000000       0.00000000      -0.00140177 
4
Lattice="1.8759822213148418 -3.2492965227030575 2.7984703858164957e-17 1.8759822213148418 3.2492965227030575 -2.798470385816496e-17 -1.1897965778285152e-32 -5.465726445328479e-17 6.316771766247287" Properties=species:S:1:pos:R:3:Z:I:1:forces:R:3 cutoff=-1.0 stress="-0.03863809550790202 4.210549515475758e-19 -5.295375924630601e-33 4.210549515475758e-19 -0.03863809547722675 2.679713773682535e-18 -5.295375924630601e-33 2.679713773682535e-18 -0.03860064628963961" Minim_Constant_Volume=T nneightol=1.2 pbc="T T T" energy=-652.651551361 Minim_Hydrostatic_Strain=F
Si       1.87598222       1.08309884       0.39952191       14       0.00000000      -0.00000000       0.00102056 
Si       1.87598222      -1.08309884       3.55790779       14      -0.00000000      -0.00000000       0.00102056 
Si       1.87598222       1.08309884       2.75886398       14       0.00000000       0.00000000      -0.00102056 
Si       1.87598222      -1.08309884      -0.39952191       14      -0.00000000       0.00000000      -0.00102056 
4
Lattice="1.860715742951286 -3.2228542063489822 3.749553047660455e-17 1.860715742951286 3.2228542063489827 -3.749553047660455e-17 -1.2527786456582586e-32 -7.331662720801932e-17 6.247299106258595" Properties=species:S:1:pos:R:3:Z:I:1:forces:R:3 cutoff=-1.0 stress="-0.05358456182416575 2.6005691524586293e-18 2.8773692500916114e-32 2.6005691524586293e-18 -0.05358456178711929 3.197378580017387e-33 2.8773692500916114e-32 3.197378580017387e-33 -0.05354707812545445" Minim_Constant_Volume=T nneightol=1.2 pbc="T T T" energy=-652.555895289 Minim_Hydrostatic_Strain=F
Si       1.86071574       1.07428474       0.39672619       14       0.00000000      -0.00000000       0.00089226 
Si       1.86071574      -1.07428474       3.52037573       14       0.00000000      -0.00000000       0.00089226 
Si       1.86071574       1.07428474       2.72692337       14       0.00000000       0.00000000      -0.00089226 
Si       1.86071574      -1.07428474      -0.39672619       14      -0.00000000       0.00000000      -0.00089226 
4
Lattice="1.8452108373790594 -3.195998921937937 3.706917426719387e-17 1.8452108373790594 3.1959989219379374 -3.706917426719389e-17 -4.569244562363209e-32 -7.27056970356736e-17 6.176261979109239" Properties=species:S:1:pos:R:3:Z:I:1:forces:R:3 cutoff=-1.0 stress="-0.07083908266855543 -4.483176266816187e-18 1.3355072360873218e-32 -4.483176266816187e-18 -0.07083908262774129 1.776556545788324e-17 1.3355072360873218e-32 1.776556545788324e-17 -0.07080165632004957" Minim_Constant_Volume=T nneightol=1.2 pbc="T T T" energy=-652.426970038 Minim_Hydrostatic_Strain=F
Si       1.84521084       1.06533297       0.39362770       14      -0.00000000      -0.00000000       0.00081442 
Si       1.84521084      -1.06533297       3.48175868       14      -0.00000000      -0.00000000       0.00081442 
Si       1.84521084       1.06533297       2.69450330       14       0.00000000       0.00000000      -0.00081442 
Si       1.84521084      -1.06533297      -0.39362770       14       0.00000000       0.00000000      -0.00081442 
4
Lattice="1.9408735432659567 -3.3616915896726893 -2.0875287942134424e-19 1.9408735432659567 3.3616915896726893 2.0875287942139877e-19 9.430152073945378e-32 3.8553969787171156e-19 6.539425095644665" Properties=species:S:1:pos:R:3:Z:I:1:forces:R:3 cutoff=-1.0 stress="0.011949202753554513 1.5378033937953887e-18 2.187956050553132e-32 1.5378033937953887e-18 0.01194920274168369 6.278711217086505e-18 2.187956050553132e-32 6.278711217086505e-18 0.011872376843701328" Minim_Constant_Volume=T nneightol=1.2 pbc="T T T" energy=-652.75634307 Minim_Hydrostatic_Strain=F
Si       1.94087354       1.12056386       0.40802514       14       0.00000000       0.00000000       0.00142856 
Si       1.94087354      -1.12056386       3.67773769       14       0.00000000       0.00000000       0.00142856 
Si       1.94087354       1.12056386       2.86168741       14      -0.00000000      -0.00000000      -0.00142856 
Si       1.94087354      -1.12056386      -0.40802514       14      -0.00000000      -0.00000000      -0.00142856 
4
Lattice="1.959362051613614 -3.3937146255961363 -2.0982713273237538e-19 1.959362051613614 3.3937146255961363 2.0982713273241063e-19 6.225512168424435e-32 3.8921229878274056e-19 6.573077321571684" Properties=species:S:1:pos:R:3:Z:I:1:forces:R:3 cutoff=-1.0 stress="0.023137770161829004 3.3800019396122435e-18 1.0127206503993988e-33 3.3800019396122435e-18 0.023137770137571668 -1.373738687148763e-34 1.0127206503993988e-33 -1.373738687148763e-34 0.023114166493106096" Minim_Constant_Volume=T nneightol=1.2 pbc="T T T" energy=-652.719691592 Minim_Hydrostatic_Strain=F
Si       1.95936205       1.13123821       0.40906511       14       0.00000000      -0.00000000      -0.00007345 
Si       1.95936205      -1.13123821       3.69560377       14      -0.00000000      -0.00000000      -0.00007345 
Si       1.95936205       1.13123821       2.87747355       14      -0.00000000       0.00000000       0.00007345 
Si       1.95936205      -1.13123821      -0.40906511       14       0.00000000       0.00000000       0.00007345 
4
Lattice="1.9785500318949056 -3.4269491825025526 -4.356346139025949e-17 1.9785500318949056 3.4269491825025526 4.3563461390259517e-17 4.490594902420424e-32 8.438244053174237e-17 6.59965079008803" Properties=species:S:1:pos:R:3:Z:I:1:forces:R:3 cutoff=-1.0 stress="0.033076637997747654 4.550156364380091e-20 -1.930725775608965e-32 4.550156364380091e-20 0.033076637960229624 -6.702825509112339e-18 -1.930725775608965e-32 -6.702825509112339e-18 0.03310230528688908" Minim_Constant_Volume=T nneightol=1.2 pbc="T T T" energy=-652.660925869 Minim_Hydrostatic_Strain=F
Si       1.97855003       1.14231639       0.40999870       14       0.00000000       0.00000000       0.00018148 
Si       1.97855003      -1.14231639       3.70982409       14       0.00000000       0.00000000       0.00018148 
Si       1.97855003       1.14231639       2.88982670       14      -0.00000000      -0.00000000      -0.00018148 
Si       1.97855003      -1.14231639      -0.40999870       14      -0.00000000      -0.00000000      -0.00018148 
4
Lattice="1.9983617735550174 -3.461264125875899 -8.094674514502328e-17 1.9983617735550174 3.461264125875899 8.094674514502328e-17 1.9374610083255468e-32 1.5698607578099042e-16 6.619853112768144" Properties=species:S:1:pos:R:3:Z:I:1:forces:R:3 cutoff=-1.0 stress="0.04140613207293565 -1.659544129850288e-17 -3.0217269647302856e-34 -1.659544129850288e-17 0.04140613202089407 1.793013059030544e-19 -3.0217269647302856e-34 1.793013059030544e-19 0.04142235626962686" Minim_Constant_Volume=T nneightol=1.2 pbc="T T T" energy=-652.583135087 Minim_Hydrostatic_Strain=F
Si       1.99836177       1.15375471       0.41093760       14       0.00000000       0.00000000       0.00015636 
Si       1.99836177      -1.15375471       3.72086415       14       0.00000000       0.00000000       0.00015636 
Si       1.99836177       1.15375471       2.89898896       14      -0.00000000      -0.00000000      -0.00015636 
Si       1.99836177      -1.15375471      -0.41093760       14       0.00000000      -0.00000000      -0.00015636 
4
Lattice="2.019511535330184 -3.4978965881510318 -8.106041896756529e-17 2.019511535330184 3.4978965881510318 8.106041896756529e-17 1.2424984282425821e-32 1.5864754577854891e-16 6.629149397710137" Properties=species:S:1:pos:R:3:Z:I:1:forces:R:3 cutoff=-1.0 stress="0.04675562394122147 5.128770285475199e-18 4.812025064704745e-34 5.128770285475199e-18 0.04675562387471575 2.4418042949709293e-18 4.812025064704745e-34 2.4418042949709293e-18 0.04678286237797393" Minim_Constant_Volume=T nneightol=1.2 pbc="T T T" energy=-652.491050011 Minim_Hydrostatic_Strain=F
Si       2.01951154       1.16596553       0.41128009       14       0.00000000       0.00000000       0.00029597 
Si       2.01951154      -1.16596553       3.72585478       14      -0.00000000       0.00000000       0.00029597 
Si       2.01951154       1.16596553       2.90329462       14      -0.00000000      -0.00000000      -0.00029597 
Si       2.01951154      -1.16596553      -0.41128009       14       0.00000000      -0.00000000      -0.00029597 
4
Lattice="2.0409638260654024 -3.535053046045205 -9.970146925640476e-17 2.0409638260654024 3.535053046045205 9.970146925640473e-17 -4.977627966945214e-32 1.9569075579179635e-16 6.634724060451816" Properties=species:S:1:pos:R:3:Z:I:1:forces:R:3 cutoff=-1.0 stress="0.05023043964932957 6.768340095073968e-19 -4.6936243579102435e-34 6.768340095073968e-19 0.05023043956720696 -8.427998049650449e-18 -4.6936243579102435e-34 -8.427998049650449e-18 0.05025833057087057" Minim_Constant_Volume=T nneightol=1.2 pbc="T T T" energy=-652.389815316 Minim_Hydrostatic_Strain=F
Si       2.04096383       1.17835102       0.41152128       14      -0.00000000       0.00000000       0.00040904 
Si       2.04096383      -1.17835102       3.72888331       14      -0.00000000       0.00000000       0.00040904 
Si       2.04096383       1.17835102       2.90584075       14       0.00000000      -0.00000000      -0.00040904 
Si       2.04096383      -1.17835102      -0.41152128       14       0.00000000      -0.00000000      -0.00040904 
