2
Lattice="2.9493342501423383 2.577498634321426e-18 2.576465059272852e-35 -1.4746671250711685 2.554198384874794 -1.82908615939739e-34 4.12196068519456e-35 -3.0649194620074272e-34 4.758887984179367" Properties=species:S:1:pos:R:3:Z:I:1:forces:R:3 stress="0.0001838726516992666 -6.776263578034403e-20 -1.3333772423591954e-33 -6.776263578034403e-20 0.00018387265169926637 1.934178352500704e-33 -1.3333772423591954e-33 1.934178352500704e-33 0.00025581611556639035" energy=-12.1398229522 Minim_Constant_Volume=T Minim_Hydrostatic_Strain=F pbc="T T T"
Ti       0.00000000      -0.00000000      -0.00000000       22       0.00000000      -0.00000000       0.00000000 
Ti       0.00000000       1.70279892       2.37944399       22      -0.00000000       0.00000000      -0.00000000 
2
Lattice="2.923639166224983 2.555043043300313e-18 2.1047988245070146e-32 -1.461819583112491 2.531945789449991 4.1874519828553765e-32 3.396151971679529e-32 9.763747181345309e-32 4.721830771781684" Properties=species:S:1:pos:R:3:Z:I:1:forces:R:3 stress="-0.015976922481276717 -1.734723475976807e-18 3.6229554035364042e-34 -1.734723475976807e-18 -0.015976922481276714 1.0431024120902527e-33 3.6229554035364042e-34 1.0431024120902527e-33 -0.015982644812682464" energy=-12.1328961774 Minim_Constant_Volume=T Minim_Hydrostatic_Strain=F pbc="T T T"
Ti       0.00000000      -0.00000000      -0.00000000       22      -0.00000000       0.00000000      -0.00000000 
Ti       0.00000000       1.68796386       2.36091539       22       0.00000000      -0.00000000       0.00000000 
2
Lattice="2.898959435912747 -7.109948569941393e-17 2.07300757151173e-33 -1.4494797179563728 2.5105725160410453 1.4231672141258506e-32 3.334514220760312e-33 2.844635554552147e-32 4.679427860720175" Properties=species:S:1:pos:R:3:Z:I:1:forces:R:3 stress="-0.035041925877666615 -1.0408340855860843e-17 -1.0038301817784959e-32 -1.0408340855860843e-17 -0.03504192587766663 3.84519118703183e-32 -1.0038301817784959e-32 3.84519118703183e-32 -0.03504215969739995" energy=-12.1104859916 Minim_Constant_Volume=T Minim_Hydrostatic_Strain=F pbc="T T T"
Ti       0.00000000      -0.00000000       0.00000000       22      -0.00000000       0.00000000       0.00000000 
Ti       0.00000000       1.67371501       2.33971393       22       0.00000000      -0.00000000      -0.00000000 
2
Lattice="2.874539691803788 -7.050057036946845e-17 -3.7424544754894917e-32 -1.4372698459018933 2.4894243972887717 1.7123770469862727e-32 -6.041706896919009e-32 -2.936116230058095e-33 4.63402468475055" Properties=species:S:1:pos:R:3:Z:I:1:forces:R:3 stress="-0.05674699934033379 -1.3877787807814457e-17 -1.4738658706703338e-32 -1.3877787807814457e-17 -0.05674699934033381 -4.6898706860117386e-32 -1.4738658706703338e-32 -4.6898706860117386e-32 -0.05673507478303559" energy=-12.0692008622 Minim_Constant_Volume=T Minim_Hydrostatic_Strain=F pbc="T T T"
Ti       0.00000000      -0.00000000       0.00000000       22       0.00000000      -0.00000000       0.00000000 
Ti       0.00000000       1.65961626       2.31701234       22      -0.00000000       0.00000000      -0.00000000 
2
Lattice="2.847788723013651 -1.8250682042039974e-16 1.0731712597989798e-32 -1.423894361506825 2.4662573787406683 2.148155376018907e-31 1.7254983264067e-32 4.098867982664618e-31 4.5938878348212455" Properties=species:S:1:pos:R:3:Z:I:1:forces:R:3 stress="-0.07778887659761857 2.0816681711721685e-17 -1.74157101510601e-32 2.0816681711721685e-17 -0.0777888765976186 -1.4871379447806942e-32 -1.74157101510601e-32 -1.4871379447806942e-32 -0.07776913306901942" energy=-12.0089866322 Minim_Constant_Volume=T Minim_Hydrostatic_Strain=F pbc="T T T"
Ti       0.00000000      -0.00000000       0.00000000       22      -0.00000000      -0.00000000       0.00000000 
Ti       0.00000000       1.64417159       2.29694392       22       0.00000000      -0.00000000      -0.00000000 
2
Lattice="2.8222494169756693 -1.2811855950735436e-16 1.3711190942752924e-31 -1.411124708487834 2.4441396909167503 3.344557189914002e-31 2.211443473755314e-31 7.509115307466835e-31 4.547477406361658" Properties=species:S:1:pos:R:3:Z:I:1:forces:R:3 stress="-0.10345858726223475 -2.0816681711721685e-17 7.754711109233613e-33 -2.0816681711721685e-17 -0.10345858726223482 2.4535880607665455e-32 7.754711109233613e-33 2.4535880607665455e-32 -0.10336479951887885" energy=-11.9279694309 Minim_Constant_Volume=T Minim_Hydrostatic_Strain=F pbc="T T T"
Ti       0.00000000      -0.00000000       0.00000000       22       0.00000000      -0.00000000      -0.00000000 
Ti       0.00000000       1.62942646       2.27373870       22       0.00000000       0.00000000       0.00000000 
2
Lattice="2.9748952629788774 -5.21328788568711e-18 2.0883632201658095e-34 -1.487447631489438 2.576334871337697 -2.344353189070085e-34 3.3666132511900723e-34 -2.322411075828615e-34 4.794394527271173" Properties=species:S:1:pos:R:3:Z:I:1:forces:R:3 stress="0.014903714506509862 -3.469446951953614e-18 -1.5858056045921177e-34 -3.469446951953614e-18 0.014903714506509855 -3.6709094291809184e-34 -1.5858056045921177e-34 -3.6709094291809184e-34 0.014976815146632762" energy=-12.1329549348 Minim_Constant_Volume=T Minim_Hydrostatic_Strain=F pbc="T T T"
Ti       0.00000000      -0.00000000      -0.00000000       22      -0.00000000       0.00000000      -0.00000000 
Ti       0.00000000       1.71755658       2.39719726       22       0.00000000      -0.00000000       0.00000000 
2
Lattice="2.9971811242781636 1.0233158198648136e-16 3.3298639541127376e-34 -1.4985905621390812 2.5956349933680953 2.4634856984946493e-33 5.361652589322335e-34 4.90442433871025e-33 4.83856266959708" Properties=species:S:1:pos:R:3:Z:I:1:forces:R:3 stress="0.02897127676037344 -6.938893903907228e-18 5.057127635876098e-35 -6.938893903907228e-18 0.028971276760373397 2.722936384731952e-33 5.057127635876098e-35 2.722936384731952e-33 0.029032853043014114" energy=-12.1133245503 Minim_Constant_Volume=T Minim_Hydrostatic_Strain=F pbc="T T T"
Ti       0.00000000      -0.00000000       0.00000000       22      -0.00000000      -0.00000000      -0.00000000 
Ti       0.00000000       1.73042333       2.41928133       22       0.00000000       0.00000000       0.00000000 
2
Lattice="3.0212482738254787 5.293977355143655e-17 5.365021101444278e-33 -1.5106241369127387 2.6164777562727495 -1.4127478974278073e-32 8.659975959585425e-33 -2.1330600698147998e-32 4.87516224591082" Properties=species:S:1:pos:R:3:Z:I:1:forces:R:3 stress="0.041749062825645555 -1.3877787807814457e-17 -1.4222668025506988e-33 -1.3877787807814457e-17 0.04174906282564551 -3.2318334199007605e-33 -1.4222668025506988e-33 -3.2318334199007605e-33 0.04174789917185708" energy=-12.0814311147 Minim_Constant_Volume=T Minim_Hydrostatic_Strain=F pbc="T T T"
Ti       0.00000000      -0.00000000       0.00000000       22       0.00000000      -0.00000000      -0.00000000 
Ti       0.00000000       1.74431850       2.43758112       22      -0.00000000       0.00000000      -0.00000000 
2
Lattice="3.0453553714252415 1.2459946670897204e-16 3.433969318822359e-33 -1.52267768571262 2.637355115205655 -8.386784446463667e-35 5.5514470126816895e-33 3.0188143274231266e-33 4.909871122461459" Properties=species:S:1:pos:R:3:Z:I:1:forces:R:3 stress="0.05292877743657699 1.4714092698309098e-65 -6.040042314204173e-34 1.4714092698309098e-65 0.05292877743657689 -2.1770620404153336e-32 -6.040042314204173e-34 -2.1770620404153336e-32 0.052933513132055326" energy=-12.0388952611 Minim_Constant_Volume=T Minim_Hydrostatic_Strain=F pbc="T T T"
Ti       0.00000000      -0.00000000       0.00000000       22      -0.00000000      -0.00000000      -0.00000000 
Ti       0.00000000       1.75823674       2.45493556       22       0.00000000       0.00000000       0.00000000 
2
Lattice="3.067812605461399 2.0906718031537508e-16 3.3819043880286185e-32 -1.5339063027306987 2.6568036503797 -9.753869955270274e-32 5.453745691540327e-32 -1.5012748190153216e-31 4.948212148197397" Properties=species:S:1:pos:R:3:Z:I:1:forces:R:3 stress="0.062464314359024456 -2.7755575615628914e-17 -9.460018505223037e-33 -2.7755575615628914e-17 0.06246431435902436 -9.541542698088707e-33 -9.460018505223037e-33 -9.541542698088707e-33 0.06246716844779645" energy=-11.9870470219 Minim_Constant_Volume=T Minim_Hydrostatic_Strain=F pbc="T T T"
Ti       0.00000000      -0.00000000       0.00000000       22      -0.00000000       0.00000000      -0.00000000 
Ti       0.00000000       1.77120243       2.47410607       22       0.00000000      -0.00000000       0.00000000 
2
Lattice="3.0876339422123644 4.960353018800017e-16 1.4666759052475545e-31 -1.5438169711061813 2.673969431543003 8.957183164915733e-32 2.3640985735027366e-31 3.038505276169348e-31 4.993426675179266" Properties=species:S:1:pos:R:3:Z:I:1:forces:R:3 stress="0.07008337740244171 -2.7755575615628914e-17 -2.6523276104084847e-32 -2.7755575615628914e-17 0.07008337740244155 -8.560633722203199e-32 -2.6523276104084847e-32 -8.560633722203199e-32 0.07007028117877522" energy=-11.9275138474 Minim_Constant_Volume=T Minim_Hydrostatic_Strain=F pbc="T T T"
Ti       0.00000000      -0.00000000       0.00000000       22       0.00000000      -0.00000000      -0.00000000 
Ti       0.00000000       1.78264629       2.49671334       22      -0.00000000       0.00000000       0.00000000 
