2
Lattice="3.2780165534579195 6.619962355082446e-37 1.759468070700782e-36 6.619962355082446e-37 3.2780165534579195 -9.49073793768107e-20 1.759468070700782e-36 -9.49073793768107e-20 3.2780165534579195" Properties=species:S:1:pos:R:3:Z:I:1:forces:R:3 stress="2.0412835678014036e-05 1.5294557322368024e-33 -1.9118196652960045e-34 1.5294557322368024e-33 2.041283567801405e-05 -3.0499508327094873e-21 -1.9118196652960045e-34 -3.0499508327094873e-21 2.041283567801405e-05" energy=-12.0054060757 Minim_Constant_Volume=T Minim_Hydrostatic_Strain=F pbc="T T T"
Ti       0.00000000      -0.00000000       0.00000000       22       0.00000000       0.00000000      -0.00000000 
Ti       1.63900828       1.63900828       1.63900828       22      -0.00000000      -0.00000000      -0.00000000 
2
Lattice="3.250468893460444 6.564329789114612e-37 1.7446819256653185e-36 6.564329789114612e-37 3.250468893460444 -9.410980066551169e-20 1.7446819256653185e-36 -9.410980066551169e-20 3.250468893460444" Properties=species:S:1:pos:R:3:Z:I:1:forces:R:3 stress="-0.016729267120252123 -1.3679489262190084e-50 9.721811252452075e-35 -1.3679489262190084e-50 -0.01672926712025212 7.065884020600366e-18 9.721811252452075e-35 7.065884020600366e-18 -0.01672926712025212" energy=-11.9983622505 Minim_Constant_Volume=T Minim_Hydrostatic_Strain=F pbc="T T T"
Ti       0.00000000      -0.00000000       0.00000000       22       0.00000000       0.00000000       0.00000000 
Ti       1.62523445       1.62523445       1.62523445       22       0.00000000       0.00000000       0.00000000 
2
Lattice="3.222446215463953 6.507737923149299e-37 1.7296408157788096e-36 6.507737923149299e-37 3.222446215463953 -9.329846890790917e-20 1.7296408157788096e-36 -9.329846890790917e-20 3.222446215463953" Properties=species:S:1:pos:R:3:Z:I:1:forces:R:3 stress="-0.03568315172117102 3.1489621994356644e-40 7.186714967897878e-54 3.1489621994356644e-40 -0.035683151721171 2.3601334986965233e-17 7.186714967897878e-54 2.3601334986965233e-17 -0.035683151721170994" energy=-11.9754102698 Minim_Constant_Volume=T Minim_Hydrostatic_Strain=F pbc="T T T"
Ti       0.00000000      -0.00000000       0.00000000       22       0.00000000       0.00000000       0.00000000 
Ti       1.61122311       1.61122311       1.61122311       22       0.00000000       0.00000000       0.00000000 
2
Lattice="3.1939274966757316 6.450144301605792e-37 1.714333457104175e-36 6.450144301605792e-37 3.1939274966757316 -9.247277543771632e-20 1.714333457104175e-36 -9.247277543771632e-20 3.1939274966757316" Properties=species:S:1:pos:R:3:Z:I:1:forces:R:3 stress="-0.05644360547314031 5.8769450172758725e-40 4.797863249205903e-54 5.8769450172758725e-40 -0.05644360547314029 -1.751290063974422e-17 4.797863249205903e-54 -1.751290063974422e-17 -0.05644360547314029" energy=-11.9349872668 Minim_Constant_Volume=T Minim_Hydrostatic_Strain=F pbc="T T T"
Ti       0.00000000      -0.00000000       0.00000000       22      -0.00000000      -0.00000000       0.00000000 
Ti       1.59696375       1.59696375       1.59696375       22      -0.00000000       0.00000000      -0.00000000 
2
Lattice="3.164890184925154 6.391503380320986e-37 1.6987477448141527e-36 6.391503380320986e-37 3.164890184925154 -9.163206730905e-20 1.6987477448141527e-36 -9.163206730905e-20 3.164890184925154" Properties=species:S:1:pos:R:3:Z:I:1:forces:R:3 stress="-0.08003934330750583 1.0124367174088067e-39 1.4652854837548628e-53 1.0124367174088067e-39 -0.08003934330750581 -3.712105181868399e-17 1.4652854837548628e-53 -3.712105181868399e-17 -0.08003934330750583" energy=-11.875174982 Minim_Constant_Volume=T Minim_Hydrostatic_Strain=F pbc="T T T"
Ti       0.00000000      -0.00000000       0.00000000       22       0.00000000       0.00000000       0.00000000 
Ti       1.58244509       1.58244509       1.58244509       22       0.00000000       0.00000000       0.00000000 
2
Lattice="3.135310041376864 6.3317662089082775e-37 1.68287066876795e-36 6.3317662089082775e-37 3.135310041376864 -9.077564274255518e-20 1.68287066876795e-36 -9.077564274255518e-20 3.135310041376864" Properties=species:S:1:pos:R:3:Z:I:1:forces:R:3 stress="-0.10525767082935981 1.030943998121849e-37 1.0204183743253896e-37 1.030943998121849e-37 -0.1052576708293599 -3.205918899771605e-17 1.0204183743253896e-37 -3.205918899771605e-17 -0.1052576708293599" energy=-11.7936709239 Minim_Constant_Volume=T Minim_Hydrostatic_Strain=F pbc="T T T"
Ti       0.00000000      -0.00000000       0.00000000       22      -0.00000000       0.00000000      -0.00000000 
Ti       1.56765502       1.56765502       1.56765502       22       0.00000000       0.00000000      -0.00000000 
2
Lattice="3.305108827952034 6.674675268925241e-37 1.7740097885834364e-36 6.674675268925241e-37 3.305108827952034 -9.569177345526075e-20 1.7740097885834364e-36 -9.569177345526075e-20 3.305108827952034" Properties=species:S:1:pos:R:3:Z:I:1:forces:R:3 stress="0.01446070579851689 -9.403027045694961e-35 9.403027045694964e-35 -9.403027045694961e-35 0.01446070579851689 1.0589315463197487e-17 9.403027045694964e-35 1.0589315463197487e-17 0.01446070579851689" energy=-11.9990465998 Minim_Constant_Volume=T Minim_Hydrostatic_Strain=F pbc="T T T"
Ti       0.00000000      -0.00000000       0.00000000       22       0.00000000       0.00000000       0.00000000 
Ti       1.65255441       1.65255441       1.65255441       22       0.00000000       0.00000000       0.00000000 
2
Lattice="3.331764082513412 6.728505619957276e-37 1.788316936992334e-36 6.728505619957276e-37 3.331764082513412 -9.646351463343557e-20 1.788316936992334e-36 -9.646351463343557e-20 3.331764082513412" Properties=species:S:1:pos:R:3:Z:I:1:forces:R:3 stress="0.0285713611470939 -5.783233758017412e-36 -5.647689216813876e-36 -5.783233758017412e-36 0.028571361147093896 -9.903127862037302e-18 -5.647689216813876e-36 -9.903127862037302e-18 0.028571361147093893" energy=-11.9800328977 Minim_Constant_Volume=T Minim_Hydrostatic_Strain=F pbc="T T T"
Ti       0.00000000      -0.00000000       0.00000000       22      -0.00000000       0.00000000      -0.00000000 
Ti       1.66588204       1.66588204       1.66588204       22       0.00000000      -0.00000000       0.00000000 
2
Lattice="3.3579995255545407 6.781488160609175e-37 1.8023987525044798e-36 6.781488160609175e-37 3.3579995255545407 -9.722310114107432e-20 1.8023987525044798e-36 -9.722310114107432e-20 3.3579995255545407" Properties=species:S:1:pos:R:3:Z:I:1:forces:R:3 stress="0.04126747493900101 -1.4028855542281581e-40 -7.683547187905206e-54 -1.4028855542281581e-40 0.041267474939000987 1.322470175028468e-17 -7.683547187905206e-54 1.322470175028468e-17 0.041267474939001" energy=-11.9491482426 Minim_Constant_Volume=T Minim_Hydrostatic_Strain=F pbc="T T T"
Ti       0.00000000      -0.00000000       0.00000000       22       0.00000000       0.00000000       0.00000000 
Ti       1.67899976       1.67899976       1.67899976       22       0.00000000       0.00000000       0.00000000 
2
Lattice="3.383831306271424 6.833655504221312e-37 1.816263903164795e-36 6.833655504221312e-37 3.383831306271424 -9.79710005407554e-20 1.816263903164795e-36 -9.79710005407554e-20 3.383831306271424" Properties=species:S:1:pos:R:3:Z:I:1:forces:R:3 stress="0.05199146396462586 2.0213888507168533e-52 -4.204971785845551e-36 2.0213888507168533e-52 0.05199146396462587 -7.789580530850677e-18 -4.204971785845551e-36 -7.789580530850677e-18 0.0519914639646259" energy=-11.9079413429 Minim_Constant_Volume=T Minim_Hydrostatic_Strain=F pbc="T T T"
Ti       0.00000000      -0.00000000       0.00000000       22       0.00000000       0.00000000       0.00000000 
Ti       1.69191565       1.69191565       1.69191565       22      -0.00000000      -0.00000000      -0.00000000 
2
Lattice="3.4092746022720877 6.8850383020097906e-37 1.8299205355205203e-36 6.8850383020097906e-37 3.4092746022720877 -9.870765226497693e-20 1.8299205355205203e-36 -9.870765226497693e-20 3.4092746022720877" Properties=species:S:1:pos:R:3:Z:I:1:forces:R:3 stress="0.06103924460066119 1.380480452906283e-36 -1.3808142911023349e-36 1.380480452906283e-36 0.06103924460066121 3.3282709174912766e-17 -1.3808142911023349e-36 3.3282709174912766e-17 0.06103924460066121" energy=-11.8580811339 Minim_Constant_Volume=T Minim_Hydrostatic_Strain=F pbc="T T T"
Ti       0.00000000      -0.00000000       0.00000000       22      -0.00000000       0.00000000      -0.00000000 
Ti       1.70463730       1.70463730       1.70463730       22      -0.00000000      -0.00000000      -0.00000000 
2
Lattice="3.434343698181591 6.9356654018094535e-37 1.8433763168122825e-36 6.9356654018094535e-37 3.434343698181591 -9.943346989198282e-20 1.8433763168122825e-36 -9.943346989198282e-20 3.434343698181591" Properties=species:S:1:pos:R:3:Z:I:1:forces:R:3 stress="0.06939368521350914 5.442917094779181e-36 -4.082187821084385e-36 5.442917094779181e-36 0.06939368521350915 -9.922136675053434e-18 -4.082187821084385e-36 -9.922136675053434e-18 0.06939368521350912" energy=-11.8006457075 Minim_Constant_Volume=T Minim_Hydrostatic_Strain=F pbc="T T T"
Ti       0.00000000      -0.00000000       0.00000000       22       0.00000000       0.00000000       0.00000000 
Ti       1.71717185       1.71717185       1.71717185       22       0.00000000       0.00000000       0.00000000 
