2
Lattice="3.2781632088360486 -1.964086299258891e-35 1.3881448632672028e-35 -1.964086299258891e-35 3.2781632088360486 1.300188639129572e-19 1.3881448632672028e-35 1.300188639129572e-19 3.2781632088360486" Properties=species:S:1:pos:R:3:Z:I:1:forces:R:3 stress="5.302912374394432e-05 -5.9739019085850496e-36 -1.4934754771462625e-35 -5.9739019085850496e-36 5.30291237439443e-05 -6.511982265859114e-21 -1.4934754771462625e-35 -6.511982265859114e-21 5.302912374394429e-05" energy=-12.0050145097 Minim_Constant_Volume=T Minim_Hydrostatic_Strain=F pbc="T T T"
Ti       0.00000000      -0.00000000       0.00000000       22       0.00000000       0.00000000       0.00000000 
Ti       1.63908160       1.63908160       1.63908160       22       0.00000000       0.00000000       0.00000000 
2
Lattice="3.250614316382169 -1.9475805920132675e-35 1.376479228851724e-35 -1.9475805920132675e-35 3.250614316382169 1.2892621675943568e-19 1.376479228851724e-35 1.2892621675943568e-19 3.250614316382169" Properties=species:S:1:pos:R:3:Z:I:1:forces:R:3 stress="-0.016694759750168753 -2.0486124597133136e-34 -4.999411176305786e-53 -2.0486124597133136e-34 -0.01669475975016875 -3.012491647939007e-18 -4.999411176305786e-53 -3.012491647939007e-18 -0.016694759750168757" energy=-11.9977616432 Minim_Constant_Volume=T Minim_Hydrostatic_Strain=F pbc="T T T"
Ti       0.00000000      -0.00000000       0.00000000       22       0.00000000       0.00000000       0.00000000 
Ti       1.62530716       1.62530716       1.62530716       22       0.00000000      -0.00000000       0.00000000 
2
Lattice="3.2225903846774155 -1.9307902686503813e-35 1.36461243810145e-35 -1.9307902686503813e-35 3.2225903846774155 1.2781472854774286e-19 1.36461243810145e-35 1.2781472854774286e-19 3.2225903846774155" Properties=species:S:1:pos:R:3:Z:I:1:forces:R:3 stress="-0.03510029197647898 9.890744875010054e-35 -2.4726862187525125e-35 9.890744875010054e-35 -0.03510029197647898 2.7074080566035957e-19 -2.4726862187525125e-35 2.7074080566035957e-19 -0.03510029197647899" energy=-11.9750980887 Minim_Constant_Volume=T Minim_Hydrostatic_Strain=F pbc="T T T"
Ti       0.00000000      -0.00000000       0.00000000       22       0.00000000      -0.00000000      -0.00000000 
Ti       1.61129519       1.61129519       1.61129519       22      -0.00000000       0.00000000      -0.00000000 
2
Lattice="3.194070389988533 -1.913702732961986e-35 1.3525355884738695e-35 -1.913702732961986e-35 3.194070389988533 1.2668356543229544e-19 1.3525355884738695e-35 1.2668356543229544e-19 3.194070389988533" Properties=species:S:1:pos:R:3:Z:I:1:forces:R:3 stress="-0.055664970820487325 -2.01363264654056e-34 1.1517113310269764e-50 -2.01363264654056e-34 -0.05566497082048726 -8.226616431371609e-18 1.1517113310269764e-50 -8.226616431371609e-18 -0.0556649708204873" energy=-11.9353017314 Minim_Constant_Volume=T Minim_Hydrostatic_Strain=F pbc="T T T"
Ti       0.00000000      -0.00000000       0.00000000       22       0.00000000       0.00000000       0.00000000 
Ti       1.59703519       1.59703519       1.59703519       22       0.00000000       0.00000000       0.00000000 
2
Lattice="3.165031779135933 -1.8963044723838154e-35 1.3402391297793176e-35 -1.8963044723838154e-35 3.165031779135933 1.2553183290644415e-19 1.3402391297793176e-35 1.2553183290644415e-19 3.165031779135933" Properties=species:S:1:pos:R:3:Z:I:1:forces:R:3 stress="-0.07904799034353463 6.389588357797456e-36 6.408598752682417e-36 6.389588357797456e-36 -0.07904799034353453 -8.520727816625107e-19 6.408598752682417e-36 -8.520727816625107e-19 -0.07904799034353455" energy=-11.8762149538 Minim_Constant_Volume=T Minim_Hydrostatic_Strain=F pbc="T T T"
Ti       0.00000000      -0.00000000       0.00000000       22       0.00000000       0.00000000       0.00000000 
Ti       1.58251589       1.58251589       1.58251589       22       0.00000000       0.00000000       0.00000000 
2
Lattice="3.1354503121998367 -1.8785809637541776e-35 1.3277127975745732e-35 -1.8785809637541776e-35 3.1354503121998367 1.2435856956386776e-19 1.3277127975745732e-35 1.2435856956386776e-19 3.1354503121998367" Properties=species:S:1:pos:R:3:Z:I:1:forces:R:3 stress="-0.1048990964412023 1.306018656429237e-35 1.8569952771103218e-35 1.306018656429237e-35 -0.10489909644120252 1.0885551090037365e-18 1.8569952771103218e-35 1.0885551090037365e-18 -0.10489909644120252" energy=-11.7954017421 Minim_Constant_Volume=T Minim_Hydrostatic_Strain=F pbc="T T T"
Ti       0.00000000      -0.00000000       0.00000000       22       0.00000000       0.00000000       0.00000000 
Ti       1.56772516       1.56772516       1.56772516       22       0.00000000       0.00000000       0.00000000 
2
Lattice="3.305256695413048 -1.98031915357243e-35 1.3996176551399461e-35 -1.98031915357243e-35 3.305256695413048 1.3109344870931123e-19 1.3996176551399461e-35 1.3109344870931123e-19 3.305256695413048" Properties=species:S:1:pos:R:3:Z:I:1:forces:R:3 stress="0.0151281903468373 9.40218573697859e-35 -4.6092746484016133e-35 9.40218573697859e-35 0.015128190346837293 2.0322955121905387e-19 -4.6092746484016133e-35 2.0322955121905387e-19 0.015128190346837293" energy=-11.9981818337 Minim_Constant_Volume=T Minim_Hydrostatic_Strain=F pbc="T T T"
Ti       0.00000000      -0.00000000       0.00000000       22      -0.00000000       0.00000000       0.00000000 
Ti       1.65262835       1.65262835       1.65262835       22      -0.00000000       0.00000000      -0.00000000 
2
Lattice="3.331913142505449 -1.9962901590367044e-35 1.4109053817560376e-35 -1.9962901590367044e-35 3.331913142505449 1.3215069959833589e-19 1.4109053817560376e-35 1.3215069959833589e-19 3.331913142505449" Properties=species:S:1:pos:R:3:Z:I:1:forces:R:3 stress="0.028701150257591054 7.228395399827549e-37 7.237278462685765e-53 7.228395399827549e-37 0.028701150257591047 5.308516945373226e-18 7.237278462685765e-53 5.308516945373226e-18 0.028701150257591054" energy=-11.9787972266 Minim_Constant_Volume=T Minim_Hydrostatic_Strain=F pbc="T T T"
Ti       0.00000000      -0.00000000       0.00000000       22       0.00000000       0.00000000      -0.00000000 
Ti       1.66595657       1.66595657       1.66595657       22       0.00000000      -0.00000000      -0.00000000 
2
Lattice="3.3581497592956295 -2.012009626401112e-35 1.4220153303786783e-35 -2.012009626401112e-35 3.3581497592956295 1.331912991324848e-19 1.4220153303786783e-35 1.331912991324848e-19 3.3581497592956295" Properties=species:S:1:pos:R:3:Z:I:1:forces:R:3 stress="0.04114533180383637 -1.821667412461988e-34 3.6433348249239747e-34 -1.821667412461988e-34 0.04114533180383638 -7.670097118172675e-18 3.6433348249239747e-34 -7.670097118172675e-18 0.041145331803836345" energy=-11.9479525942 Minim_Constant_Volume=T Minim_Hydrostatic_Strain=F pbc="T T T"
Ti       0.00000000      -0.00000000       0.00000000       22       0.00000000       0.00000000       0.00000000 
Ti       1.67907488       1.67907488       1.67907488       22       0.00000000       0.00000000       0.00000000 
2
Lattice="3.3839826957020915 -2.027487231765237e-35 1.432954339723631e-35 -2.027487231765237e-35 3.3839826957020915 1.3421588785157315e-19 1.432954339723631e-35 1.3421588785157315e-19 3.3839826957020915" Properties=species:S:1:pos:R:3:Z:I:1:forces:R:3 stress="0.052243094639489576 -2.8030637054178133e-36 -1.0511488895316792e-35 -2.8030637054178133e-36 0.05224309463948958 1.2964973164989361e-17 -1.0511488895316792e-35 1.2964973164989361e-17 0.05224309463948957" energy=-11.906719426 Minim_Constant_Volume=T Minim_Hydrostatic_Strain=F pbc="T T T"
Ti       0.00000000      -0.00000000       0.00000000       22       0.00000000       0.00000000       0.00000000 
Ti       1.69199135       1.69199135       1.69199135       22       0.00000000       0.00000000       0.00000000 
2
Lattice="3.409427130011893 -2.04273206908315e-35 1.4437288370673529e-35 -2.04273206908315e-35 3.409427130011893 1.352250677584646e-19 1.4437288370673529e-35 1.352250677584646e-19 3.409427130011893" Properties=species:S:1:pos:R:3:Z:I:1:forces:R:3 stress="0.06184079940257617 -1.2528584578557167e-52 -2.761381493454811e-36 -1.2528584578557167e-52 0.061840799402576176 1.1704065451521388e-17 -2.761381493454811e-36 1.1704065451521388e-17 0.061840799402576196" energy=-11.8563764831 Minim_Constant_Volume=T Minim_Hydrostatic_Strain=F pbc="T T T"
Ti       0.00000000      -0.00000000       0.00000000       22      -0.00000000      -0.00000000      -0.00000000 
Ti       1.70471357       1.70471357       1.70471357       22       0.00000000      -0.00000000      -0.00000000 
2
Lattice="3.434497347489173 -2.0577526972611018e-35 1.454344871533933e-35 -2.0577526972611018e-35 3.434497347489173 1.3621940543685132e-19 1.454344871533933e-35 1.3621940543685132e-19 3.434497347489173" Properties=species:S:1:pos:R:3:Z:I:1:forces:R:3 stress="0.07027160886847304 -1.3606075263688518e-35 -1.0884860210950818e-35 -1.3606075263688518e-35 0.07027160886847302 5.9059881133567295e-19 -1.0884860210950818e-35 5.9059881133567295e-19 0.07027160886847304" energy=-11.7981399476 Minim_Constant_Volume=T Minim_Hydrostatic_Strain=F pbc="T T T"
Ti       0.00000000      -0.00000000       0.00000000       22       0.00000000       0.00000000      -0.00000000 
Ti       1.71724867       1.71724867       1.71724867       22      -0.00000000      -0.00000000       0.00000000 
