2
Lattice="3.2468015462534643 2.7528164168334327e-27 -1.1070555242106043e-28 2.7528164168334327e-27 3.2468015462534643 -4.333975314228309e-17 -1.1070555242106043e-28 -4.333975314228309e-17 3.2468015462534647" Properties=species:S:1:pos:R:3:Z:I:1:forces:R:3 stress="0.0005898394269184047 -2.043419974305616e-28 -2.650060279177595e-28 -2.043419974305616e-28 0.0005898394269184055 -1.394560054742384e-20 -2.650060279177595e-28 -1.394560054742384e-20 0.0005898394269184049" energy=-12.039756303 Minim_Constant_Volume=T Minim_Hydrostatic_Strain=F pbc="T T T"
Ti      -0.00000000      -0.00000000       0.00000000       22       0.00000000       0.00000000       0.00000000 
Ti       1.62340077       1.62340077       1.62340077       22       0.00000000       0.00000000       0.00000000 
2
Lattice="3.219516209643093 2.729682412032145e-27 -1.0977520967623475e-28 2.729682412032145e-27 3.219516209643093 -4.2975536316508154e-17 -1.0977520967623475e-28 -4.2975536316508154e-17 3.2195162096430936" Properties=species:S:1:pos:R:3:Z:I:1:forces:R:3 stress="-0.020178452473675206 8.312810527184904e-28 -2.9419556006365302e-27 8.312810527184904e-28 -0.020178452473675203 7.427440412777143e-19 -2.9419556006365302e-27 7.427440412777143e-19 -0.020178452473675185" energy=-12.0321687861 Minim_Constant_Volume=T Minim_Hydrostatic_Strain=F pbc="T T T"
Ti      -0.00000000      -0.00000000       0.00000000       22      -0.00000000       0.00000000       0.00000000 
Ti       1.60975810       1.60975810       1.60975810       22       0.00000000      -0.00000000      -0.00000000 
2
Lattice="3.1917603784063067 2.7061494960830163e-27 -1.0882882456886042e-28 2.7061494960830163e-27 3.1917603784063067 -4.260503911890479e-17 -1.0882882456886042e-28 -4.260503911890479e-17 3.191760378406307" Properties=species:S:1:pos:R:3:Z:I:1:forces:R:3 stress="-0.05285265454171536 -6.607825806979973e-30 -1.1563695162214872e-29 -6.607825806979973e-30 -0.052852654541715435 1.5081640582636992e-18 -1.1563695162214872e-29 1.5081640582636992e-18 -0.05285265454171539" energy=-12.0014206698 Minim_Constant_Volume=T Minim_Hydrostatic_Strain=F pbc="T T T"
Ti      -0.00000000      -0.00000000       0.00000000       22       0.00000000       0.00000000       0.00000000 
Ti       1.59588019       1.59588019       1.59588019       22       0.00000000       0.00000000       0.00000000 
2
Lattice="3.1635132299405404 2.6822000144416083e-27 -1.078656871147617e-28 2.6822000144416083e-27 3.1635132299405404 -4.222798360009971e-17 -1.078656871147617e-28 -4.222798360009971e-17 3.163513229940541" Properties=species:S:1:pos:R:3:Z:I:1:forces:R:3 stress="-0.09051003738366542 -2.0179067303423642e-29 6.726355767807873e-30 -2.0179067303423642e-29 -0.09051003738366548 2.6607517865044658e-18 6.726355767807873e-30 2.6607517865044658e-18 -0.09051003738366538" energy=-11.9411512237 Minim_Constant_Volume=T Minim_Hydrostatic_Strain=F pbc="T T T"
Ti      -0.00000000      -0.00000000       0.00000000       22       0.00000000       0.00000000       0.00000000 
Ti       1.58175661       1.58175661       1.58175661       22       0.00000000       0.00000000       0.00000000 
2
Lattice="3.1347524268288645 2.6578150282207856e-27 -1.0688503567943592e-28 2.6578150282207856e-27 3.1347524268288645 -4.184407159030281e-17 -1.0688503567943592e-28 -4.184407159030281e-17 3.134752426828865" Properties=species:S:1:pos:R:3:Z:I:1:forces:R:3 stress="-0.1478265127334408 7.055858688498872e-28 2.1147663736035083e-44 7.055858688498872e-28 -0.14782651273344077 -1.0800691154402896e-18 2.1147663736035083e-44 -1.0800691154402896e-18 -0.14782651273344083" energy=-11.8410451709 Minim_Constant_Volume=T Minim_Hydrostatic_Strain=F pbc="T T T"
Ti      -0.00000000      -0.00000000       0.00000000       22       0.00000000       0.00000000       0.00000000 
Ti       1.56737621       1.56737621       1.56737621       22       0.00000000       0.00000000       0.00000000 
2
Lattice="3.1054539610509306 2.632974182104214e-27 -1.0588605166614493e-28 2.632974182104214e-27 3.1054539610509306 -4.1452982619765485e-17 -1.0588605166614493e-28 -4.1452982619765485e-17 3.105453961050931" Properties=species:S:1:pos:R:3:Z:I:1:forces:R:3 stress="-0.23856174586704398 -3.490108739597448e-29 6.98021747919493e-30 -3.490108739597448e-29 -0.2385617458670437 -7.157178906119718e-19 6.98021747919493e-30 -7.157178906119718e-19 -0.23856174586704373" energy=-11.6784506337 Minim_Constant_Volume=T Minim_Hydrostatic_Strain=F pbc="T T T"
Ti      -0.00000000      -0.00000000       0.00000000       22      -0.00000000       0.00000000      -0.00000000 
Ti       1.55272698       1.55272698       1.55272698       22      -0.00000000      -0.00000000      -0.00000000 
2
Lattice="3.273635833782069 2.775567997486094e-27 -1.116205158342409e-28 2.775567997486094e-27 3.273635833782069 -4.369794916402047e-17 -1.116205158342409e-28 -4.369794916402047e-17 3.2736358337820692" Properties=species:S:1:pos:R:3:Z:I:1:forces:R:3 stress="0.012014881351921426 5.960302305526617e-45 -1.4133213854453581e-29 5.960302305526617e-45 0.012014881351921433 -4.374866881013916e-19 -1.4133213854453581e-29 -4.374866881013916e-19 0.012014881351921426" energy=-12.0338537482 Minim_Constant_Volume=T Minim_Hydrostatic_Strain=F pbc="T T T"
Ti      -0.00000000      -0.00000000       0.00000000       22       0.00000000       0.00000000      -0.00000000 
Ti       1.63681792       1.63681792       1.63681792       22       0.00000000       0.00000000      -0.00000000 
2
Lattice="3.3000372629128543 2.7979525770496203e-27 -1.125207201599416e-28 2.7979525770496203e-27 3.3000372629128543 -4.405036719907163e-17 -1.125207201599416e-28 -4.405036719907163e-17 3.3000372629128547" Properties=species:S:1:pos:R:3:Z:I:1:forces:R:3 stress="0.018521367411327296 4.635992449390472e-30 3.090661632926977e-30 4.635992449390472e-30 0.018521367411327306 -5.035868782878452e-19 3.090661632926977e-30 -5.035868782878452e-19 0.018521367411327296" energy=-12.0206983213 Minim_Constant_Volume=T Minim_Hydrostatic_Strain=F pbc="T T T"
Ti      -0.00000000      -0.00000000       0.00000000       22       0.00000000       0.00000000       0.00000000 
Ti       1.65001863       1.65001863       1.65001863       22      -0.00000000      -0.00000000      -0.00000000 
2
Lattice="3.326022878190704 2.819984606823946e-27 -1.1340674656265017e-28 2.819984606823946e-27 3.326022878190704 -4.439723476561321e-17 -1.1340674656265017e-28 -4.439723476561321e-17 3.3260228781907046" Properties=species:S:1:pos:R:3:Z:I:1:forces:R:3 stress="0.023025364012429616 -3.0425567264943757e-30 -1.5212783632471914e-30 -3.0425567264943757e-30 0.02302536401242962 -1.4706577603663282e-19 -1.5212783632471914e-30 -1.4706577603663282e-19 0.023025364012429606" energy=-12.0027744118 Minim_Constant_Volume=T Minim_Hydrostatic_Strain=F pbc="T T T"
Ti      -0.00000000      -0.00000000       0.00000000       22       0.00000000       0.00000000       0.00000000 
Ti       1.66301144       1.66301144       1.66301144       22       0.00000000       0.00000000       0.00000000 
2
Lattice="3.351608675030438 2.841677648598999e-27 -1.1427914043487316e-28 2.841677648598999e-27 3.351608675030438 -4.4738765377566444e-17 -1.1427914043487316e-28 -4.4738765377566444e-17 3.3516086750304384" Properties=species:S:1:pos:R:3:Z:I:1:forces:R:3 stress="0.027002054547683896 -3.745351219818973e-30 2.99628097585518e-30 -3.745351219818973e-30 0.02700205454768389 -2.506091920648909e-19 2.99628097585518e-30 -2.506091920648909e-19 0.027002054547683875" energy=-11.9814325564 Minim_Constant_Volume=T Minim_Hydrostatic_Strain=F pbc="T T T"
Ti      -0.00000000      -0.00000000       0.00000000       22       0.00000000      -0.00000000       0.00000000 
Ti       1.67580434       1.67580434       1.67580434       22       0.00000000       0.00000000       0.00000000 
2
Lattice="3.3768096865108697 2.8630444482434653e-27 -1.1513841435653618e-28 2.8630444482434653e-27 3.3768096865108697 -4.5075159703162993e-17 -1.1513841435653618e-28 -4.5075159703162993e-17 3.37680968651087" Properties=species:S:1:pos:R:3:Z:I:1:forces:R:3 stress="0.032823491146036075 5.534485458664412e-30 4.427588366931508e-30 5.534485458664412e-30 0.03282349114603612 -1.1518960860161505e-18 4.427588366931508e-30 -1.1518960860161505e-18 0.03282349114603609" energy=-11.9560287807 Minim_Constant_Volume=T Minim_Hydrostatic_Strain=F pbc="T T T"
Ti      -0.00000000      -0.00000000       0.00000000       22       0.00000000       0.00000000      -0.00000000 
Ti       1.68840484       1.68840484       1.68840484       22      -0.00000000      -0.00000000       0.00000000 
2
Lattice="3.4016400612313054 2.8840970017157942e-27 -1.1598505074964117e-28 2.8840970017157942e-27 3.4016400612313054 -4.540660660420807e-17 -1.1598505074964117e-28 -4.540660660420807e-17 3.401640061231306" Properties=species:S:1:pos:R:3:Z:I:1:forces:R:3 stress="0.04271045461721026 -6.981097042898705e-29 -9.017250347077492e-29 -6.981097042898705e-29 0.04271045461721024 -1.9964471380360238e-19 -9.017250347077492e-29 -1.9964471380360238e-19 0.04271045461721024" energy=-11.9239686141 Minim_Constant_Volume=T Minim_Hydrostatic_Strain=F pbc="T T T"
Ti      -0.00000000      -0.00000000       0.00000000       22      -0.00000000       0.00000000       0.00000000 
Ti       1.70082003       1.70082003       1.70082003       22       0.00000000      -0.00000000      -0.00000000 
