2
Lattice="3.180619654290032 -2.1312947596309136e-27 -2.943066769055157e-26 -2.1312947596309136e-27 3.180619654290032 1.715340144755124e-18 -2.943066769055157e-26 1.715340144755124e-18 3.180619654290032" Properties=species:S:1:pos:R:3:Z:I:1:forces:R:3 stress="-0.00018346005757092232 2.72555917550256e-26 9.53945711425897e-26 2.72555917550256e-26 -0.00018346005757092267 1.4942413541286875e-19 9.53945711425897e-26 1.4942413541286875e-19 -0.00018346005757092267" energy=-22.3931957993 Minim_Constant_Volume=T Minim_Hydrostatic_Strain=F pbc="T T T"
W       0.00000000      -0.00000000      -0.00000000       74       0.00000000       0.00000000       0.00000000 
W       1.59030983       1.59030983       1.59030983       74       0.00000000       0.00000000       0.00000000 
2
Lattice="3.1538904943273582 -2.1133838728384785e-27 -2.9183339462088917e-26 -2.1133838728384785e-27 3.1538904943273582 1.700924840159457e-18 -2.9183339462088917e-26 1.700924840159457e-18 3.1538904943273582" Properties=species:S:1:pos:R:3:Z:I:1:forces:R:3 stress="-0.048514678037205314 -5.543906120982864e-26 -9.100059366010634e-42 -5.543906120982864e-26 -0.048514678037205244 -1.4864080428698375e-17 -9.100059366010634e-42 -1.4864080428698375e-17 -0.04851467803720526" energy=-22.3739371044 Minim_Constant_Volume=T Minim_Hydrostatic_Strain=F pbc="T T T"
W       0.00000000      -0.00000000      -0.00000000       74      -0.00000000       0.00000000       0.00000000 
W       1.57694525       1.57694525       1.57694525       74       0.00000000      -0.00000000       0.00000000 
2
Lattice="3.1267004301687558 -2.0951641397191492e-27 -2.8931746430002465e-26 -2.0951641397191492e-27 3.1267004301687558 1.6862609652988433e-18 -2.8931746430002465e-26 1.6862609652988433e-18 3.1267004301687558" Properties=species:S:1:pos:R:3:Z:I:1:forces:R:3 stress="-0.1028233456296155 2.8203729801683043e-26 8.46111894050491e-26 2.8203729801683043e-26 -0.1028233456296155 4.1124417825988606e-17 8.46111894050491e-26 4.1124417825988606e-17 -0.10282334562961543" energy=-22.3135275816 Minim_Constant_Volume=T Minim_Hydrostatic_Strain=F pbc="T T T"
W       0.00000000      -0.00000000      -0.00000000       74       0.00000000       0.00000000       0.00000000 
W       1.56335022       1.56335022       1.56335022       74       0.00000000       0.00000000       0.00000000 
2
Lattice="3.0990290636537514 -2.0766218917123155e-27 -2.867569984758633e-26 -2.0766218917123155e-27 3.0990290636537514 1.6713375192403376e-18 -2.867569984758633e-26 1.6713375192403376e-18 3.0990290636537514" Properties=species:S:1:pos:R:3:Z:I:1:forces:R:3 stress="-0.16488697958757492 -8.612892931810677e-26 -2.009675017422492e-25 -8.612892931810677e-26 -0.16488697958757506 6.978014675975968e-17 -2.009675017422492e-25 6.978014675975968e-17 -0.16488697958757495" energy=-22.2064466932 Minim_Constant_Volume=T Minim_Hydrostatic_Strain=F pbc="T T T"
W       0.00000000      -0.00000000      -0.00000000       74      -0.00000000       0.00000000      -0.00000000 
W       1.54951453       1.54951453       1.54951453       74       0.00000000      -0.00000000       0.00000000 
2
Lattice="3.0708545126850537 -2.0577424658892543e-27 -2.841499723708343e-26 -2.0577424658892543e-27 3.0708545126850537 1.6561427007489565e-18 -2.841499723708343e-26 1.6561427007489565e-18 3.0708545126850537" Properties=species:S:1:pos:R:3:Z:I:1:forces:R:3 stress="-0.2375408385003557 -3.508664601416263e-25 -1.754332300708131e-25 -3.508664601416263e-25 -0.23754083850035565 2.0254227209811789e-16 -1.754332300708131e-25 2.0254227209811789e-16 -0.23754083850035557" energy=-22.0454232392 Minim_Constant_Volume=T Minim_Hydrostatic_Strain=F pbc="T T T"
W       0.00000000      -0.00000000      -0.00000000       74       0.00000000       0.00000000       0.00000000 
W       1.53542726       1.53542726       1.53542726       74      -0.00000000       0.00000000      -0.00000000 
2
Lattice="3.0421532586150692 -2.038510102688679e-27 -2.814942097753398e-26 -2.038510102688679e-27 3.0421532586150692 1.6406638259816904e-18 -2.814942097753398e-26 1.6406638259816904e-18 3.0421532586150692" Properties=species:S:1:pos:R:3:Z:I:1:forces:R:3 stress="-0.3249222170262287 1.2662103047753473e-25 2.085522854924102e-25 1.2662103047753473e-25 -0.3249222170262291 1.3875006527101366e-16 2.085522854924102e-25 1.3875006527101366e-16 -0.324922217026229" energy=-21.8203545985 Minim_Constant_Volume=T Minim_Hydrostatic_Strain=F pbc="T T T"
W       0.00000000      -0.00000000      -0.00000000       74       0.00000000       0.00000000       0.00000000 
W       1.52107663       1.52107663       1.52107663       74       0.00000000      -0.00000000      -0.00000000 
2
Lattice="3.2069069592288986 -2.148909564716287e-27 -2.967390737973996e-26 -2.148909564716287e-27 3.2069069592288986 1.7295171524958131e-18 -2.967390737973996e-26 1.7295171524958131e-18 3.2069069592288986" Properties=species:S:1:pos:R:3:Z:I:1:forces:R:3 stress="0.04428073129762569 -2.6810590043726364e-26 -2.144847203498111e-25 -2.6810590043726364e-26 0.04428073129762568 -9.056120023817834e-18 -2.144847203498111e-25 -9.056120023817834e-18 0.04428073129762567" energy=-22.3753485795 Minim_Constant_Volume=T Minim_Hydrostatic_Strain=F pbc="T T T"
W       0.00000000      -0.00000000      -0.00000000       74      -0.00000000       0.00000000      -0.00000000 
W       1.60345348       1.60345348       1.60345348       74      -0.00000000      -0.00000000       0.00000000 
2
Lattice="3.2327702290341076 -2.1662402289874496e-27 -2.9913223419305234e-26 -2.1662402289874496e-27 3.2327702290341076 1.7434654738273715e-18 -2.9913223419305234e-26 1.7434654738273715e-18 3.2327702290341076" Properties=species:S:1:pos:R:3:Z:I:1:forces:R:3 stress="0.08454640786342213 1.0553327300053715e-25 -9.285581823207437e-42 1.0553327300053715e-25 0.08454640786342213 -3.468828804049239e-17 -9.285581823207437e-42 -3.468828804049239e-17 0.08454640786342212" energy=-22.3231228992 Minim_Constant_Volume=T Minim_Hydrostatic_Strain=F pbc="T T T"
W       0.00000000      -0.00000000      -0.00000000       74       0.00000000       0.00000000      -0.00000000 
W       1.61638511       1.61638511       1.61638511       74       0.00000000      -0.00000000      -0.00000000 
2
Lattice="3.2582261608193197 -2.1832979409783084e-27 -3.014877030970863e-26 -2.1832979409783084e-27 3.2582261608193197 1.7571941136710027e-18 -3.014877030970863e-26 1.7571941136710027e-18 3.2582261608193197" Properties=species:S:1:pos:R:3:Z:I:1:forces:R:3 stress="0.11847167289326231 -6.493168125716712e-27 -3.895900875430029e-26 -6.493168125716712e-27 0.11847167289326227 -1.9657170454669174e-17 -3.895900875430029e-26 -1.9657170454669174e-17 0.11847167289326233" energy=-22.2410299463 Minim_Constant_Volume=T Minim_Hydrostatic_Strain=F pbc="T T T"
W       0.00000000      -0.00000000      -0.00000000       74       0.00000000      -0.00000000      -0.00000000 
W       1.62911308       1.62911308       1.62911308       74       0.00000000      -0.00000000       0.00000000 
2
Lattice="3.283290423953305 -2.20009320054335e-27 -3.0380693041560556e-26 -2.20009320054335e-27 3.283290423953305 1.7707115226747612e-18 -3.0380693041560556e-26 1.7707115226747612e-18 3.283290423953305" Properties=species:S:1:pos:R:3:Z:I:1:forces:R:3 stress="0.1456996869511667 3.1972051595124405e-26 -2.557764127609952e-26 3.1972051595124405e-26 0.1456996869511669 3.9832669407859944e-17 -2.557764127609952e-26 3.9832669407859944e-17 0.1456996869511669" energy=-22.1343244201 Minim_Constant_Volume=T Minim_Hydrostatic_Strain=F pbc="T T T"
W       0.00000000      -0.00000000      -0.00000000       74       0.00000000       0.00000000       0.00000000 
W       1.64164521       1.64164521       1.64164521       74       0.00000000       0.00000000       0.00000000 
2
Lattice="3.3079777450848176 -2.21663587583178e-27 -3.060912788236633e-26 -2.21663587583178e-27 3.3079777450848176 1.7840256430683224e-18 -3.060912788236633e-26 1.7840256430683224e-18 3.3079777450848176" Properties=species:S:1:pos:R:3:Z:I:1:forces:R:3 stress="0.16629843557114524 2.5197295776593645e-26 -1.2598647888296823e-26 2.5197295776593645e-26 0.16629843557114524 -1.0438745962958302e-16 -1.2598647888296823e-26 -1.0438745962958302e-16 0.1662984355711451" energy=-22.0084008384 Minim_Constant_Volume=T Minim_Hydrostatic_Strain=F pbc="T T T"
W       0.00000000      -0.00000000      -0.00000000       74       0.00000000       0.00000000      -0.00000000 
W       1.65398887       1.65398887       1.65398887       74      -0.00000000      -0.00000000       0.00000000 
2
Lattice="3.3323019844120827 -2.2329352543947853e-27 -3.0834203082257214e-26 -2.2329352543947853e-27 3.3323019844120827 1.7971439497958847e-18 -3.0834203082257214e-26 1.7971439497958847e-18 3.3323019844120827" Properties=species:S:1:pos:R:3:Z:I:1:forces:R:3 stress="0.1830376709183515 -2.49601958805103e-44 -1.2066099158266864e-42 -2.49601958805103e-44 0.1830376709183516 -3.545317514926233e-17 -1.2066099158266864e-42 -3.545317514926233e-17 0.1830376709183516" energy=-21.8678428619 Minim_Constant_Volume=T Minim_Hydrostatic_Strain=F pbc="T T T"
W       0.00000000      -0.00000000      -0.00000000       74       0.00000000      -0.00000000      -0.00000000 
W       1.66615099       1.66615099       1.66615099       74      -0.00000000       0.00000000       0.00000000 
