2
Lattice="2.9504364145357376 2.699999550216335e-18 -5.01471415953284e-35 -1.4752182072678681 2.555152887238624 -2.40448720540096e-34 -7.78349849952319e-35 -4.789225337236286e-34 4.7569391799695" Properties=species:S:1:pos:R:3:Z:I:1:forces:R:3 stress="0.0001467010899255747 -9.486769009248164e-20 4.571563480945353e-35 -9.486769009248164e-20 0.00014670108992557464 1.1086249764889876e-34 4.571563480945353e-35 1.1086249764889876e-34 0.00021578476706105097" energy=-12.1394994718 Minim_Constant_Volume=T Minim_Hydrostatic_Strain=F pbc="T T T"
Ti       0.00000000      -0.00000000       0.00000000       22       0.00000000       0.00000000      -0.00000000 
Ti       0.00000000       1.70343526       2.37846959       22      -0.00000000      -0.00000000       0.00000000 
2
Lattice="2.9245177636362425 -2.7403101661903347e-17 1.0344172938473355e-34 -1.4622588818181206 2.532706677127841 1.5505026941909502e-34 1.6985967420498246e-34 4.007777831593317e-34 4.720587086353183" Properties=species:S:1:pos:R:3:Z:I:1:forces:R:3 stress="-0.01605194413171896 3.469446951953614e-18 2.7468979053425456e-36 3.469446951953614e-18 -0.016051944131718954 -3.5660225756044195e-35 2.7468979053425456e-36 -3.5660225756044195e-35 -0.016067839639780295" energy=-12.1325226745 Minim_Constant_Volume=T Minim_Hydrostatic_Strain=F pbc="T T T"
Ti      -0.00000000      -0.00000000       0.00000000       22      -0.00000000       0.00000000       0.00000000 
Ti       0.00000000       1.68847112       2.36029354       22       0.00000000      -0.00000000      -0.00000000 
2
Lattice="2.8997901972076026 -1.0081976396942086e-16 -5.065340035671414e-33 -1.4498950986038006 2.5112919764268717 -5.034584748156298e-33 -8.173229729583433e-33 -1.4088784265299193e-32 4.678326542945869" Properties=species:S:1:pos:R:3:Z:I:1:forces:R:3 stress="-0.03525805090752869 -1.0408340855860843e-17 -4.056477074421444e-34 -1.0408340855860843e-17 -0.03525805090752863 -3.283920452656317e-34 -4.056477074421444e-34 -3.283920452656317e-34 -0.03525902674333252" energy=-12.1099914617 Minim_Constant_Volume=T Minim_Hydrostatic_Strain=F pbc="T T T"
Ti      -0.00000000      -0.00000000       0.00000000       22      -0.00000000       0.00000000       0.00000000 
Ti       0.00000000       1.67419465       2.33916327       22       0.00000000      -0.00000000      -0.00000000 
2
Lattice="2.8755045299662414 -9.997540107672892e-17 -2.2115196341947824e-33 -1.43775226498312 2.4902599716479976 -5.5262821157070556e-33 -3.580703831765931e-33 -1.2366720577365856e-32 4.632478783470744" Properties=species:S:1:pos:R:3:Z:I:1:forces:R:3 stress="-0.05734329907592646 1.3877787807814457e-17 -6.7679816108828605e-34 1.3877787807814457e-17 -0.05734329907592638 -2.0042766773596782e-33 -6.7679816108828605e-34 -2.0042766773596782e-33 -0.05733058463707476" energy=-12.0682962176 Minim_Constant_Volume=T Minim_Hydrostatic_Strain=F pbc="T T T"
Ti      -0.00000000       0.00000000      -0.00000000       22       0.00000000       0.00000000       0.00000000 
Ti       0.00000000       1.66017331       2.31623939       22       0.00000000       0.00000000       0.00000000 
2
Lattice="2.848570259252954 -9.903895166786579e-17 1.3924222003722446e-32 -1.4242851296264762 2.4669342089778827 -4.5421357438951114e-33 2.241731959421755e-32 4.4826726189646865e-33 4.592917611763664" Properties=species:S:1:pos:R:3:Z:I:1:forces:R:3 stress="-0.07843838250764469 -6.938893903907228e-18 3.014660219558755e-33 -6.938893903907228e-18 -0.07843838250764464 1.0994867913926842e-32 3.014660219558755e-33 1.0994867913926842e-32 -0.07848765286806234" energy=-12.0074632639 Minim_Constant_Volume=T Minim_Hydrostatic_Strain=F pbc="T T T"
Ti      -0.00000000       0.00000000      -0.00000000       22       0.00000000       0.00000000       0.00000000 
Ti       0.00000000       1.64462281       2.29645881       22      -0.00000000       0.00000000      -0.00000000 
2
Lattice="2.822742278187879 -1.2490259128148464e-16 -7.810818623694234e-33 -1.4113711390939387 2.444566521247064 -2.6307598929692247e-32 -1.2608253353712813e-32 -5.626916332222775e-32 4.547425692492956" Properties=species:S:1:pos:R:3:Z:I:1:forces:R:3 stress="-0.10327734768953334 5.551115123125783e-17 4.759788496844528e-34 5.551115123125783e-17 -0.10327734768953335 1.2107603061140814e-33 4.759788496844528e-34 1.2107603061140814e-33 -0.10320687804480397" energy=-11.9260878726 Minim_Constant_Volume=T Minim_Hydrostatic_Strain=F pbc="T T T"
Ti      -0.00000000       0.00000000      -0.00000000       22      -0.00000000       0.00000000       0.00000000 
Ti       0.00000000       1.62971101       2.27371285       22       0.00000000      -0.00000000      -0.00000000 
2
Lattice="2.976253400852785 1.7668302369879785e-17 -1.2041997335174482e-34 -1.4881267004263918 2.577511053238342 -6.982289596228236e-34 -1.9122603260099487e-34 -1.3971726534298035e-33 4.79163658082545" Properties=species:S:1:pos:R:3:Z:I:1:forces:R:3 stress="0.0149481604539222 1.734723475976807e-18 -1.5146459870943848e-35 1.734723475976807e-18 0.014948160453922206 -5.920891808749718e-35 -1.5146459870943848e-35 -5.920891808749718e-35 0.015049068392145721" energy=-12.1326413624 Minim_Constant_Volume=T Minim_Hydrostatic_Strain=F pbc="T T T"
Ti       0.00000000      -0.00000000       0.00000000       22       0.00000000       0.00000000      -0.00000000 
Ti       0.00000000       1.71834070       2.39581829       22      -0.00000000      -0.00000000       0.00000000 
2
Lattice="2.998589504191796 6.046033512519319e-17 2.1332938766797884e-35 -1.4992947520958972 2.59685468615148 -7.914353084792935e-34 3.733563919018114e-35 -1.4362183075744397e-33 4.835651357652747" Properties=species:S:1:pos:R:3:Z:I:1:forces:R:3 stress="0.029268065939264228 -1.3877787807814457e-17 -2.8874606238942223e-35 -1.3877787807814457e-17 0.029268065939264204 1.2441521356559758e-33 -2.8874606238942223e-35 1.2441521356559758e-33 0.02930041455431038" energy=-12.1128748754 Minim_Constant_Volume=T Minim_Hydrostatic_Strain=F pbc="T T T"
Ti       0.00000000      -0.00000000       0.00000000       22       0.00000000      -0.00000000      -0.00000000 
Ti       0.00000000       1.73123646       2.41782568       22       0.00000000      -0.00000000       0.00000000 
2
Lattice="3.023209907861352 1.0881647073149233e-16 -1.1329362324541162e-32 -1.5116049539306753 2.618176581180743 -2.104129400168276e-32 -1.826721344255415e-32 -4.971334717763029e-32 4.870480767732362" Properties=species:S:1:pos:R:3:Z:I:1:forces:R:3 stress="0.04210263805579959 -6.938893903907228e-18 -5.549542985788698e-34 -6.938893903907228e-18 0.04210263805579958 8.656353335278604e-33 -5.549542985788698e-34 8.656353335278604e-33 0.042083775629496084" energy=-12.0807095838 Minim_Constant_Volume=T Minim_Hydrostatic_Strain=F pbc="T T T"
Ti       0.00000000      -0.00000000       0.00000000       22      -0.00000000      -0.00000000       0.00000000 
Ti       0.00000000       1.74545105       2.43524038       22       0.00000000       0.00000000      -0.00000000 
2
Lattice="3.047877561380334 2.2620313319768903e-16 -1.509596651020134e-32 -1.5239387806901663 2.6395393957799342 -2.7793473082720004e-32 -2.4361003744700463e-32 -6.584738933189355e-32 4.903401889796774" Properties=species:S:1:pos:R:3:Z:I:1:forces:R:3 stress="0.05346630692197641 -1.0408340855860843e-17 9.50230205171069e-34 -1.0408340855860843e-17 0.053466306921976375 2.566328908018108e-33 9.50230205171069e-34 2.566328908018108e-33 0.053455148475971326" energy=-12.0377687292 Minim_Constant_Volume=T Minim_Hydrostatic_Strain=F pbc="T T T"
Ti       0.00000000      -0.00000000      -0.00000000       22      -0.00000000       0.00000000      -0.00000000 
Ti       0.00000000       1.75969293       2.45170094       22       0.00000000      -0.00000000       0.00000000 
2
Lattice="3.0711293014649517 4.856345311204605e-16 -2.1177475416296366e-32 -1.535564650732475 2.659675993375407 -5.665242582937954e-32 -3.415343898076796e-32 -1.251296816999074e-31 4.939197833209143" Properties=species:S:1:pos:R:3:Z:I:1:forces:R:3 stress="0.06324651155362154 -2.0816681711721685e-17 2.4736650594230395e-33 -2.0816681711721685e-17 0.06324651155362152 -2.1877240534474446e-33 2.4736650594230395e-33 -2.1877240534474446e-33 0.06324753927073631" energy=-11.9853186687 Minim_Constant_Volume=T Minim_Hydrostatic_Strain=F pbc="T T T"
Ti       0.00000000      -0.00000000      -0.00000000       22      -0.00000000       0.00000000       0.00000000 
Ti       0.00000000       1.77311733       2.46959892       22       0.00000000      -0.00000000      -0.00000000 
2
Lattice="3.092088580591595 6.574662244338882e-16 -1.0507150696359605e-32 -1.5460442902957965 2.6778272615440897 -1.302049104967111e-31 -1.6939334422727192e-32 -2.516175949849061e-31 4.980738555782075" Properties=species:S:1:pos:R:3:Z:I:1:forces:R:3 stress="0.07119299630184744 -7.632783294297951e-17 -7.948298831066242e-33 -7.632783294297951e-17 0.07119299630184732 -1.2215716208307992e-32 -7.948298831066242e-33 -1.2215716208307992e-32 0.07118544413483348" energy=-11.9249177639 Minim_Constant_Volume=T Minim_Hydrostatic_Strain=F pbc="T T T"
Ti      -0.00000000      -0.00000000      -0.00000000       22      -0.00000000       0.00000000      -0.00000000 
Ti       0.00000000       1.78521817       2.49036928       22       0.00000000      -0.00000000       0.00000000 
