2
Lattice="3.2758541974220874 -3.640815840702057e-27 -7.281631681404115e-27 -3.640815840702057e-27 3.2758541974220874 9.547744703559498e-18 -7.281631681404116e-27 9.547744703559498e-18 3.2758541974220874" Properties=species:S:1:pos:R:3:Z:I:1:forces:R:3 stress="-0.0009897002797788642 -8.029342547966517e-28 1.2044013821949776e-27 -8.029342547966517e-28 -0.0009897002797788637 -2.24966839119979e-19 1.2044013821949776e-27 -2.24966839119979e-19 -0.0009897002797788637" energy=-12.0091749326 Minim_Constant_Volume=T Minim_Hydrostatic_Strain=F pbc="T T T"
Ti      -0.00000000       0.00000000       0.00000000       22      -0.00000000      -0.00000000      -0.00000000 
Ti       1.63792710       1.63792710       1.63792710       22      -0.00000000      -0.00000000       0.00000000 
2
Lattice="3.248324709342873 -3.610219303052702e-27 -7.220438606105406e-27 -3.610219303052702e-27 3.248324709342873 9.46750776132719e-18 -7.220438606105407e-27 9.46750776132719e-18 3.248324709342873" Properties=species:S:1:pos:R:3:Z:I:1:forces:R:3 stress="-0.018278190583830945 8.166016298459535e-28 -1.633203259691907e-27 8.166016298459535e-28 -0.018278190583830956 -5.7678096745259244e-18 -1.633203259691907e-27 -5.7678096745259244e-18 -0.01827819058383095" energy=-12.0008329085 Minim_Constant_Volume=T Minim_Hydrostatic_Strain=F pbc="T T T"
Ti      -0.00000000       0.00000000       0.00000000       22       0.00000000      -0.00000000      -0.00000000 
Ti       1.62416235       1.62416235       1.62416235       22      -0.00000000       0.00000000       0.00000000 
2
Lattice="3.2203205166120656 -3.5790951740909695e-27 -7.15819034818194e-27 -3.5790951740909695e-27 3.2203205166120656 9.385887253603299e-18 -7.158190348181942e-27 9.385887253603299e-18 3.2203205166120656" Properties=species:S:1:pos:R:3:Z:I:1:forces:R:3 stress="-0.03742916600141093 8.568304214338658e-28 -1.6617317264171935e-27 8.568304214338658e-28 -0.037429166001410934 -5.018232129589784e-18 -1.6617317264171935e-27 -5.018232129589784e-18 -0.03742916600141091" energy=-11.9765270251 Minim_Constant_Volume=T Minim_Hydrostatic_Strain=F pbc="T T T"
Ti      -0.00000000       0.00000000       0.00000000       22       0.00000000       0.00000000       0.00000000 
Ti       1.61016026       1.61016026       1.61016026       22       0.00000000       0.00000000       0.00000000 
2
Lattice="3.1918206103047155 -3.547420104295744e-27 -7.09484020859149e-27 -3.547420104295744e-27 3.1918206103047155 9.302821948159583e-18 -7.094840208591491e-27 9.302821948159583e-18 3.1918206103047155" Properties=species:S:1:pos:R:3:Z:I:1:forces:R:3 stress="-0.059340278434863954 2.114424454623335e-27 -8.457697818493335e-28 2.114424454623335e-27 -0.059340278434864 -1.0514007645259177e-17 -8.457697818493335e-28 -1.0514007645259177e-17 -0.059340278434863954" energy=-11.9342159435 Minim_Constant_Volume=T Minim_Hydrostatic_Strain=F pbc="T T T"
Ti      -0.00000000       0.00000000       0.00000000       22       0.00000000      -0.00000000      -0.00000000 
Ti       1.59591031       1.59591031       1.59591031       22      -0.00000000       0.00000000       0.00000000 
2
Lattice="3.16280245312682 -3.515169045501857e-27 -7.030338091003715e-27 -3.515169045501857e-27 3.16280245312682 9.21824615821132e-18 -7.030338091003717e-27 9.21824615821132e-18 3.16280245312682" Properties=species:S:1:pos:R:3:Z:I:1:forces:R:3 stress="-0.08420336833245344 -8.61360555047111e-28 -8.613605550471111e-28 -8.61360555047111e-28 -0.0842033683324533 -5.174278615183413e-17 -8.613605550471111e-28 -5.174278615183413e-17 -0.08420336833245327" energy=-11.8713595137 Minim_Constant_Volume=T Minim_Hydrostatic_Strain=F pbc="T T T"
Ti      -0.00000000       0.00000000       0.00000000       22       0.00000000      -0.00000000       0.00000000 
Ti       1.58140123       1.58140123       1.58140123       22      -0.00000000       0.00000000       0.00000000 
2
Lattice="3.1332418222322644 -3.482315076205318e-27 -6.964630152410637e-27 -3.482315076205318e-27 3.1332418222322644 9.132089284294442e-18 -6.964630152410639e-27 9.132089284294442e-18 3.1332418222322644" Properties=species:S:1:pos:R:3:Z:I:1:forces:R:3 stress="-0.11239127485842901 -8.776902706952145e-28 -8.776902706952145e-28 -8.776902706952145e-28 -0.11239127485842894 4.810394330701984e-17 -8.776902706952145e-28 4.810394330701984e-17 -0.11239127485842897" energy=-11.7852899601 Minim_Constant_Volume=T Minim_Hydrostatic_Strain=F pbc="T T T"
Ti      -0.00000000       0.00000000       0.00000000       22       0.00000000       0.00000000      -0.00000000 
Ti       1.56662091       1.56662091       1.56662091       22      -0.00000000       0.00000000       0.00000000 
2
Lattice="3.3029286003947127 -3.6709065923899236e-27 -7.341813184779849e-27 -3.6709065923899236e-27 3.3029286003947127 9.626655263067105e-18 -7.34181318477985e-27 9.626655263067105e-18 3.3029286003947127" Properties=species:S:1:pos:R:3:Z:I:1:forces:R:3 stress="0.014397464670230899 1.4214253838491497e-43 -1.579649514191788e-27 1.4214253838491497e-43 0.014397464670230906 3.959649092279553e-18 -1.579649514191788e-27 3.959649092279553e-18 0.014397464670230899" energy=-12.0031445332 Minim_Constant_Volume=T Minim_Hydrostatic_Strain=F pbc="T T T"
Ti      -0.00000000       0.00000000       0.00000000       22       0.00000000      -0.00000000       0.00000000 
Ti       1.65146430       1.65146430       1.65146430       22      -0.00000000      -0.00000000      -0.00000000 
2
Lattice="3.3295662717164554 -3.7005119563233784e-27 -7.401023912646758e-27 -3.7005119563233784e-27 3.3295662717164554 9.704292932496187e-18 -7.40102391264676e-27 9.704292932496187e-18 3.3295662717164554" Properties=species:S:1:pos:R:3:Z:I:1:forces:R:3 stress="0.028136794346960543 3.1089502908082528e-27 3.497569077159284e-27 3.1089502908082528e-27 0.028136794346960557 5.200469022240525e-18 3.497569077159284e-27 5.200469022240525e-18 0.028136794346960557" energy=-11.9843416658 Minim_Constant_Volume=T Minim_Hydrostatic_Strain=F pbc="T T T"
Ti      -0.00000000       0.00000000       0.00000000       22       0.00000000       0.00000000       0.00000000 
Ti       1.66478314       1.66478314       1.66478314       22       0.00000000       0.00000000      -0.00000000 
2
Lattice="3.3557844084482085 -3.7296510454811854e-27 -7.459302090962372e-27 -3.7296510454811854e-27 3.3557844084482085 9.780707834085759e-18 -7.459302090962374e-27 9.780707834085759e-18 3.3557844084482085" Properties=species:S:1:pos:R:3:Z:I:1:forces:R:3 stress="0.04049469729520742 2.869275683216672e-27 2.2954205465733376e-27 2.869275683216672e-27 0.04049469729520738 5.945983776747897e-18 2.2954205465733376e-27 5.945983776747897e-18 0.040494697295207355" energy=-11.9541057523 Minim_Constant_Volume=T Minim_Hydrostatic_Strain=F pbc="T T T"
Ti      -0.00000000       0.00000000       0.00000000       22       0.00000000       0.00000000       0.00000000 
Ti       1.67789220       1.67789220       1.67789220       22       0.00000000       0.00000000       0.00000000 
2
Lattice="3.3815991491330974 -3.75834179639529e-27 -7.516683592790581e-27 -3.75834179639529e-27 3.3815991491330974 9.855947004938317e-18 -7.516683592790582e-27 9.855947004938317e-18 3.3815991491330974" Properties=species:S:1:pos:R:3:Z:I:1:forces:R:3 stress="0.051676454971553175 -4.709392416166816e-28 7.535027865866904e-28 -4.709392416166816e-28 0.05167645497155316 2.1826172889291157e-17 7.535027865866904e-28 2.1826172889291157e-17 0.05167645497155313" energy=-11.9135053699 Minim_Constant_Volume=T Minim_Hydrostatic_Strain=F pbc="T T T"
Ti      -0.00000000       0.00000000       0.00000000       22      -0.00000000      -0.00000000      -0.00000000 
Ti       1.69079957       1.69079957       1.69079957       22      -0.00000000       0.00000000       0.00000000 
2
Lattice="3.4070256613671814 -3.786601066477733e-27 -7.573202132955467e-27 -3.786601066477733e-27 3.4070256613671814 9.930054652251804e-18 -7.573202132955469e-27 9.930054652251804e-18 3.4070256613671814" Properties=species:S:1:pos:R:3:Z:I:1:forces:R:3 stress="0.06155059769811065 -1.4845960483348908e-27 -1.1134470362511678e-27 -1.4845960483348908e-27 0.061550597698110734 2.3322641039418713e-17 -1.1134470362511678e-27 2.3322641039418713e-17 0.06155059769811069" energy=-11.8636561342 Minim_Constant_Volume=T Minim_Hydrostatic_Strain=F pbc="T T T"
Ti      -0.00000000       0.00000000       0.00000000       22       0.00000000       0.00000000       0.00000000 
Ti       1.70351283       1.70351283       1.70351283       22       0.00000000      -0.00000000      -0.00000000 
2
Lattice="3.432078220352612 -3.814444721325393e-27 -7.628889442650788e-27 -3.814444721325393e-27 3.432078220352612 1.0003072382269211e-17 -7.62888944265079e-27 1.0003072382269211e-17 3.432078220352612" Properties=species:S:1:pos:R:3:Z:I:1:forces:R:3 stress="0.07010353217320005 9.14375902863167e-28 -7.315007222905344e-28 9.14375902863167e-28 0.07010353217320005 -1.2160757235082632e-17 -7.315007222905344e-28 -1.2160757235082632e-17 0.07010353217320009" energy=-11.8057039616 Minim_Constant_Volume=T Minim_Hydrostatic_Strain=F pbc="T T T"
Ti      -0.00000000       0.00000000       0.00000000       22       0.00000000       0.00000000       0.00000000 
Ti       1.71603911       1.71603911       1.71603911       22       0.00000000       0.00000000       0.00000000 
