8
Lattice="5.459415391746585 -1.829559320009699e-27 0.0 -1.829559320009699e-27 5.459415391746585 0.0 0.0 0.0 5.459415391746585" Properties=species:S:1:pos:R:3:Z:I:1:forces:R:3 stress="-1.7466595313728996e-05 -1.129267602541264e-30 0.0 -1.129267602541264e-30 -1.7466595313729002e-05 0.0 0.0 0.0 -1.7466595313728996e-05" energy=-1305.41820764 Minim_Constant_Volume=T Minim_Hydrostatic_Strain=F pbc="T T T"
Si       0.00000000      -0.00000000       0.00000000       14      -0.00000000       0.00000000      -0.00000000 
Si       1.36485385       1.36485385       1.36485385       14      -0.00000000       0.00000000      -0.00000000 
Si       2.72970770       2.72970770       0.00000000       14       0.00000000       0.00000000       0.00000000 
Si       4.09456154       4.09456154       1.36485385       14      -0.00000000      -0.00000000      -0.00000000 
Si       2.72970770      -0.00000000       2.72970770       14       0.00000000       0.00000000      -0.00000000 
Si       4.09456154       1.36485385       4.09456154       14      -0.00000000       0.00000000      -0.00000000 
Si       0.00000000       2.72970770       2.72970770       14       0.00000000       0.00000000       0.00000000 
Si       1.36485385       4.09456154       4.09456154       14       0.00000000      -0.00000000      -0.00000000 
8
Lattice="5.413535782371772 -1.8141841450308927e-27 0.0 -1.8141841450308927e-27 5.413535782371772 0.0 0.0 0.0 5.413535782371772" Properties=species:S:1:pos:R:3:Z:I:1:forces:R:3 stress="-0.015092955469002663 -5.880267540466282e-28 2.95589294205605e-54 -5.880267540466282e-28 -0.015092955469002663 -8.820401310699425e-27 2.95589294205605e-54 -8.820401310699425e-27 -0.015092955469002665" energy=-1305.38837546 Minim_Constant_Volume=T Minim_Hydrostatic_Strain=F pbc="T T T"
Si       0.00000000      -0.00000000       0.00000000       14       0.00000000       0.00000000       0.00000000 
Si       1.35338395       1.35338395       1.35338395       14       0.00000000      -0.00000000       0.00000000 
Si       2.70676789       2.70676789       0.00000000       14      -0.00000000      -0.00000000      -0.00000000 
Si       4.06015184       4.06015184       1.35338395       14      -0.00000000       0.00000000      -0.00000000 
Si       2.70676789      -0.00000000       2.70676789       14      -0.00000000       0.00000000       0.00000000 
Si       4.06015184       1.35338395       4.06015184       14       0.00000000       0.00000000       0.00000000 
Si       0.00000000       2.70676789       2.70676789       14      -0.00000000      -0.00000000      -0.00000000 
Si       1.35338395       4.06015184       4.06015184       14      -0.00000000      -0.00000000       0.00000000 
8
Lattice="5.366865048079531 -1.798543848264841e-27 0.0 -1.798543848264841e-27 5.366865048079531 0.0 0.0 0.0 5.366865048079531" Properties=species:S:1:pos:R:3:Z:I:1:forces:R:3 stress="-0.03315338964984763 7.478728591976769e-29 -5.012543144439754e-56 7.478728591976769e-29 -0.033153389649847625 1.4957457183953539e-28 -5.012543144439754e-56 1.4957457183953539e-28 -0.03315338964984763" energy=-1305.29096327 Minim_Constant_Volume=T Minim_Hydrostatic_Strain=F pbc="T T T"
Si       0.00000000      -0.00000000       0.00000000       14       0.00000000      -0.00000000       0.00000000 
Si       1.34171626       1.34171626       1.34171626       14       0.00000000      -0.00000000      -0.00000000 
Si       2.68343252       2.68343252       0.00000000       14       0.00000000      -0.00000000      -0.00000000 
Si       4.02514879       4.02514879       1.34171626       14       0.00000000      -0.00000000      -0.00000000 
Si       2.68343252      -0.00000000       2.68343252       14      -0.00000000      -0.00000000      -0.00000000 
Si       4.02514879       1.34171626       4.02514879       14       0.00000000      -0.00000000      -0.00000000 
Si       0.00000000       2.68343252       2.68343252       14      -0.00000000      -0.00000000      -0.00000000 
Si       1.34171626       4.02514879       4.02514879       14      -0.00000000      -0.00000000      -0.00000000 
8
Lattice="5.319368176185744 -1.7826266962606253e-27 0.0 -1.7826266962606253e-27 5.319368176185744 0.0 0.0 0.0 5.319368176185744" Properties=species:S:1:pos:R:3:Z:I:1:forces:R:3 stress="-0.05357753386246208 -3.045152258546235e-28 -1.020491443808139e-55 -3.045152258546235e-28 -0.05357753386246208 3.045152258546235e-28 -1.020491443808139e-55 3.045152258546235e-28 -0.05357753386246208" energy=-1305.11576212 Minim_Constant_Volume=T Minim_Hydrostatic_Strain=F pbc="T T T"
Si       0.00000000      -0.00000000       0.00000000       14      -0.00000000      -0.00000000      -0.00000000 
Si       1.32984204       1.32984204       1.32984204       14       0.00000000      -0.00000000      -0.00000000 
Si       2.65968409       2.65968409       0.00000000       14       0.00000000      -0.00000000       0.00000000 
Si       3.98952613       3.98952613       1.32984204       14      -0.00000000       0.00000000       0.00000000 
Si       2.65968409      -0.00000000       2.65968409       14       0.00000000      -0.00000000      -0.00000000 
Si       3.98952613       1.32984204       3.98952613       14      -0.00000000      -0.00000000      -0.00000000 
Si       0.00000000       2.65968409       2.65968409       14      -0.00000000       0.00000000       0.00000000 
Si       1.32984204       3.98952613       3.98952613       14       0.00000000       0.00000000      -0.00000000 
8
Lattice="5.271007606883914 -1.766420101975659e-27 0.0 -1.766420101975659e-27 5.271007606883914 0.0 0.0 0.0 5.271007606883914" Properties=species:S:1:pos:R:3:Z:I:1:forces:R:3 stress="-0.07439932094728963 -1.8607716396930385e-26 -3.065943867000419e-54 -1.8607716396930385e-26 -0.0743993209472897 9.14879389515744e-27 -3.065943867000419e-54 9.14879389515744e-27 -0.07439932094728963" energy=-1304.85639958 Minim_Constant_Volume=T Minim_Hydrostatic_Strain=F pbc="T T T"
Si       0.00000000      -0.00000000       0.00000000       14       0.00000000       0.00000000      -0.00000000 
Si       1.31775190       1.31775190       1.31775190       14      -0.00000000      -0.00000000       0.00000000 
Si       2.63550380       2.63550380       0.00000000       14       0.00000000      -0.00000000      -0.00000000 
Si       3.95325571       3.95325571       1.31775190       14       0.00000000       0.00000000       0.00000000 
Si       2.63550380      -0.00000000       2.63550380       14       0.00000000      -0.00000000      -0.00000000 
Si       3.95325571       1.31775190       3.95325571       14       0.00000000       0.00000000       0.00000000 
Si       0.00000000       2.63550380       2.63550380       14       0.00000000      -0.00000000      -0.00000000 
Si       1.31775190       3.95325571       3.95325571       14       0.00000000       0.00000000       0.00000000 
8
Lattice="5.221742971289791 -1.7499105369892008e-27 0.0 -1.7499105369892008e-27 5.221742971289791 0.0 0.0 0.0 5.221742971289791" Properties=species:S:1:pos:R:3:Z:I:1:forces:R:3 stress="-0.09902836585290958 -9.155976945985857e-45 -1.6546971298731788e-57 -9.155976945985857e-45 -0.09902836585290954 4.937625624218972e-30 -1.6546971298731788e-57 4.937625624218972e-30 -0.09902836585290956" energy=-1304.50513243 Minim_Constant_Volume=T Minim_Hydrostatic_Strain=F pbc="T T T"
Si       0.00000000      -0.00000000       0.00000000       14      -0.00000000       0.00000000       0.00000000 
Si       1.30543574       1.30543574       1.30543574       14      -0.00000000      -0.00000000      -0.00000000 
Si       2.61087149       2.61087149       0.00000000       14       0.00000000      -0.00000000      -0.00000000 
Si       3.91630723       3.91630723       1.30543574       14       0.00000000       0.00000000      -0.00000000 
Si       2.61087149      -0.00000000       2.61087149       14      -0.00000000       0.00000000       0.00000000 
Si       3.91630723       1.30543574       3.91630723       14       0.00000000      -0.00000000      -0.00000000 
Si       0.00000000       2.61087149       2.61087149       14       0.00000000      -0.00000000      -0.00000000 
Si       1.30543574       3.91630723       3.91630723       14       0.00000000       0.00000000       0.00000000 
8
Lattice="5.504536573399731 -1.8446803306857072e-27 0.0 -1.8446803306857072e-27 5.504536573399731 0.0 0.0 0.0 5.504536573399731" Properties=species:S:1:pos:R:3:Z:I:1:forces:R:3 stress="0.012966804788852336 7.109312411432154e-29 2.3824728195000256e-56 7.109312411432154e-29 0.012966804788852341 -7.109312411432154e-29 2.3824728195000256e-56 -7.109312411432154e-29 0.012966804788852334" energy=-1305.39125632 Minim_Constant_Volume=T Minim_Hydrostatic_Strain=F pbc="T T T"
Si       0.00000000      -0.00000000       0.00000000       14       0.00000000      -0.00000000       0.00000000 
Si       1.37613414       1.37613414       1.37613414       14       0.00000000      -0.00000000      -0.00000000 
Si       2.75226829       2.75226829       0.00000000       14      -0.00000000       0.00000000      -0.00000000 
Si       4.12840243       4.12840243       1.37613414       14      -0.00000000       0.00000000       0.00000000 
Si       2.75226829      -0.00000000       2.75226829       14       0.00000000      -0.00000000      -0.00000000 
Si       4.12840243       1.37613414       4.12840243       14      -0.00000000      -0.00000000       0.00000000 
Si       0.00000000       2.75226829       2.75226829       14       0.00000000       0.00000000      -0.00000000 
Si       1.37613414       4.12840243       4.12840243       14       0.00000000       0.00000000       0.00000000 
8
Lattice="5.548929914510165 -1.8595574274345185e-27 0.0 -1.8595574274345185e-27 5.548929914510165 0.0 0.0 0.0 5.548929914510165" Properties=species:S:1:pos:R:3:Z:I:1:forces:R:3 stress="0.024273183936026826 6.331033198659734e-45 0.0 6.331033198659734e-45 0.024273183936026812 0.0 0.0 0.0 0.024273183936026833" energy=-1305.31498321 Minim_Constant_Volume=T Minim_Hydrostatic_Strain=F pbc="T T T"
Si       0.00000000      -0.00000000       0.00000000       14       0.00000000      -0.00000000      -0.00000000 
Si       1.38723248       1.38723248       1.38723248       14      -0.00000000       0.00000000       0.00000000 
Si       2.77446496       2.77446496       0.00000000       14      -0.00000000      -0.00000000      -0.00000000 
Si       4.16169744       4.16169744       1.38723248       14       0.00000000      -0.00000000      -0.00000000 
Si       2.77446496      -0.00000000       2.77446496       14      -0.00000000      -0.00000000       0.00000000 
Si       4.16169744       1.38723248       4.16169744       14      -0.00000000      -0.00000000       0.00000000 
Si       0.00000000       2.77446496       2.77446496       14       0.00000000      -0.00000000      -0.00000000 
Si       1.38723248       4.16169744       4.16169744       14       0.00000000       0.00000000      -0.00000000 
8
Lattice="5.592624075052747 -1.8742002147870866e-27 0.0 -1.8742002147870866e-27 5.592624075052747 0.0 0.0 0.0 5.592624075052747" Properties=species:S:1:pos:R:3:Z:I:1:forces:R:3 stress="0.03414156647688513 -1.6620192075247988e-45 -1.1269593985189935e-58 -1.6620192075247988e-45 0.03414156647688513 3.362853239497832e-31 -1.1269593985189935e-58 3.362853239497832e-31 0.03414156647688513" energy=-1305.19572148 Minim_Constant_Volume=T Minim_Hydrostatic_Strain=F pbc="T T T"
Si       0.00000000      -0.00000000       0.00000000       14      -0.00000000      -0.00000000      -0.00000000 
Si       1.39815602       1.39815602       1.39815602       14      -0.00000000       0.00000000       0.00000000 
Si       2.79631204       2.79631204       0.00000000       14       0.00000000      -0.00000000       0.00000000 
Si       4.19446806       4.19446806       1.39815602       14      -0.00000000       0.00000000       0.00000000 
Si       2.79631204      -0.00000000       2.79631204       14       0.00000000      -0.00000000      -0.00000000 
Si       4.19446806       1.39815602       4.19446806       14       0.00000000       0.00000000       0.00000000 
Si       0.00000000       2.79631204       2.79631204       14       0.00000000       0.00000000       0.00000000 
Si       1.39815602       4.19446806       4.19446806       14      -0.00000000       0.00000000       0.00000000 
8
Lattice="5.635645950916433 -1.8886177060938848e-27 0.0 -1.8886177060938848e-27 5.635645950916433 0.0 0.0 0.0 5.635645950916433" Properties=species:S:1:pos:R:3:Z:I:1:forces:R:3 stress="0.04282191829772055 3.3911868832943436e-29 0.0 3.3911868832943436e-29 0.042821918297720564 0.0 0.0 0.0 0.04282191829772056" energy=-1305.03882145 Minim_Constant_Volume=T Minim_Hydrostatic_Strain=F pbc="T T T"
Si       0.00000000      -0.00000000       0.00000000       14       0.00000000      -0.00000000       0.00000000 
Si       1.40891149       1.40891149       1.40891149       14      -0.00000000      -0.00000000      -0.00000000 
Si       2.81782298       2.81782298       0.00000000       14      -0.00000000       0.00000000       0.00000000 
Si       4.22673446       4.22673446       1.40891149       14       0.00000000       0.00000000       0.00000000 
Si       2.81782298      -0.00000000       2.81782298       14      -0.00000000      -0.00000000      -0.00000000 
Si       4.22673446       1.40891149       4.22673446       14       0.00000000      -0.00000000      -0.00000000 
Si       0.00000000       2.81782298       2.81782298       14       0.00000000       0.00000000       0.00000000 
Si       1.40891149       4.22673446       4.22673446       14      -0.00000000       0.00000000       0.00000000 
8
Lattice="5.6780208198463225 -1.9028183724330083e-27 0.0 -1.9028183724330083e-27 5.6780208198463225 0.0 0.0 0.0 5.6780208198463225" Properties=species:S:1:pos:R:3:Z:I:1:forces:R:3 stress="0.05059233444362491 3.3407591423184945e-29 -1.6793328368024247e-56 3.3407591423184945e-29 0.05059233444362489 5.0111387134777407e-29 -1.6793328368024247e-56 5.0111387134777407e-29 0.05059233444362493" energy=-1304.84855891 Minim_Constant_Volume=T Minim_Hydrostatic_Strain=F pbc="T T T"
Si       0.00000000      -0.00000000       0.00000000       14       0.00000000       0.00000000       0.00000000 
Si       1.41950520       1.41950520       1.41950520       14       0.00000000      -0.00000000      -0.00000000 
Si       2.83901041       2.83901041       0.00000000       14       0.00000000      -0.00000000       0.00000000 
Si       4.25851561       4.25851561       1.41950520       14       0.00000000      -0.00000000      -0.00000000 
Si       2.83901041      -0.00000000       2.83901041       14      -0.00000000       0.00000000       0.00000000 
Si       4.25851561       1.41950520       4.25851561       14      -0.00000000      -0.00000000      -0.00000000 
Si       0.00000000       2.83901041       2.83901041       14      -0.00000000      -0.00000000       0.00000000 
Si       1.41950520       4.25851561       4.25851561       14      -0.00000000      -0.00000000      -0.00000000 
8
Lattice="5.719772472357393 -1.9168101864819845e-27 0.0 -1.9168101864819845e-27 5.719772472357393 0.0 0.0 0.0 5.719772472357393" Properties=species:S:1:pos:R:3:Z:I:1:forces:R:3 stress="0.057744602608618474 8.035244156314326e-45 0.0 8.035244156314326e-45 0.057744602608618446 0.0 0.0 0.0 0.05774460260861847" energy=-1304.62804217 Minim_Constant_Volume=T Minim_Hydrostatic_Strain=F pbc="T T T"
Si       0.00000000      -0.00000000       0.00000000       14      -0.00000000      -0.00000000       0.00000000 
Si       1.42994312       1.42994312       1.42994312       14       0.00000000      -0.00000000      -0.00000000 
Si       2.85988624       2.85988624       0.00000000       14      -0.00000000      -0.00000000      -0.00000000 
Si       4.28982935       4.28982935       1.42994312       14      -0.00000000       0.00000000      -0.00000000 
Si       2.85988624      -0.00000000       2.85988624       14      -0.00000000       0.00000000       0.00000000 
Si       4.28982935       1.42994312       4.28982935       14       0.00000000       0.00000000      -0.00000000 
Si       0.00000000       2.85988624       2.85988624       14       0.00000000      -0.00000000      -0.00000000 
Si       1.42994312       4.28982935       4.28982935       14       0.00000000      -0.00000000       0.00000000 
