53
Lattice="9.541823072845162 7.148316093130381e-19 -8.577979311756457e-18 7.148316093130381e-19 9.541823072845162 7.148316093130381e-18 -8.577979311756457e-18 7.148316093130381e-18 9.541823072845162" Properties=species:S:1:pos:R:3:Z:I:1:forces:R:3 energy=-589.844237887 pbc="T T T"
W       1.59527099       1.58892120       1.59678073       74      -0.23755055      -0.29746695      -0.34810497 
W       0.01523030      -0.00234153       3.17826632       74      -0.24012396       0.07893509      -0.51897514 
W       1.60609597       1.59797819       4.76621679       74      -0.22517632      -0.02367609       0.03773599 
W       0.00542560      -0.00463418       6.35655808       74      -0.07323251       0.02320702       0.44893672 
W       1.59272347       1.57117104       7.93427005       74      -0.23200928       0.11519705       0.49959596 
W      -0.00562288       3.17047938       0.00314247       74       0.12250061      -0.35036058      -0.10983745 
W       1.58122360       4.75678850       1.60496033       74       0.08115365       0.21552822      -0.27525250 
W      -0.00225776       3.18128297       3.16636021       74      -0.03676428      -0.12571976       0.17567871 
W       1.58486002       4.77202076       4.75940160       74      -0.02167591      -0.01680605       0.16946078 
W       0.00375698       3.17460130       6.35829844       74       0.01790923      -0.00499878       0.03591051 
W       1.58428678       4.78943432       7.95138426       74       0.08675540      -0.45824662       0.01224715 
W      -0.01057711       6.36944083      -0.01220844       74       0.17074910       0.27931447       0.28397425 
W       1.59239248       7.93192253       1.57702198       74      -0.25233630       0.46300730      -0.09426292 
W       0.00196861       6.36860005       3.18232137       74      -0.18330846      -0.06904612      -0.18303213 
W       1.58914736       7.94850819       4.75612632       74       0.13521425      -0.04445337       0.25988569 
W      -0.00719844       6.35660899       6.37178660       74       0.08675847       0.10031838      -0.26367518 
W       1.59374003       7.93388883       7.95476007       74      -0.22003489       0.42847978       0.11118310 
W       3.17675687      -0.00676922       0.00611676       74      -0.40293676       0.06797417      -0.07703705 
W       4.78122153       1.59961665       1.58191167       74      -0.21447440      -0.12991337       0.23673745 
W       3.17751557       0.00331263       3.19036314       74       0.05954141      -0.09103765      -0.27260710 
W       4.76611979       1.58844726       4.75984819       74       0.05490607      -0.02969456       0.25972797 
W       3.16864562       0.00812526       6.37477778       74       0.14530173      -0.20026025      -0.13998947 
W       4.77019144       1.60033917       7.95513559       74      -0.03259359      -0.04366926      -0.10686805 
W       3.17415649       3.18422165       0.01538037       74      -0.14139245      -0.16485861      -0.32024056 
W       4.77055328       4.78655797       1.56410639       74      -0.02879084      -0.19735541       0.51776983 
W       3.18882672       3.18147816       3.17761762       74      -0.16401903      -0.05535824      -0.07616147 
W       4.77182914       4.75103585       4.76871482       74      -0.00366401       0.33007649      -0.05062121 
W       3.18417882       3.19538663       6.35603268       74      -0.12414804      -0.29840824       0.20985177 
W       4.76282660       4.76589397       7.96067325       74       0.19928324       0.04202403      -0.20940787 
W       3.18389520       6.35591778       0.00513267       74      -0.15574174       0.13096660      -0.14424674 
W       4.77188231       7.96120568       1.58328331       74       0.04858088      -0.08690262       0.15873127 
W       3.17733107       6.35729430       3.16597254       74       0.02670368       0.12374830       0.12586653 
W       4.77387274       7.95412978       4.77096267       74      -0.15755606      -0.06180177       0.06268339 
W       3.17826182       6.34706167       6.35700893       74      -0.01909469       0.32264683       0.03376818 
W       4.76748439       7.94349645       7.94990637       74       0.13331704       0.06354093      -0.02179534 
W       6.36525589       0.01886186       0.00174578       74       0.41530897      -0.37196131      -0.04783927 
W       7.95409473       1.58955939       1.57111613       74       0.25393176      -0.30679530       0.12605876 
W       6.36095024       0.00060230       3.20524011       74       0.12429666      -0.02586377      -0.53393113 
W       7.94959562       1.59331932       4.77056442       74       0.11654289      -0.04151242      -0.01818009 
W       6.34952860       0.01142823       6.36873471       74       0.22600023      -0.17217682       0.06240260 
W       7.95942955       1.58120997       7.96554717       74       0.16167042      -0.10978577       0.00598680 
W       6.34719687       3.18647626       0.02190456       74       0.31312201      -0.16047908      -0.45175803 
W       7.94161386       4.76524856       1.59130036       74       0.08451853       0.12132513       0.08271975 
W       6.35618063       3.16510106       3.18129332       74       0.16871961       0.19203104      -0.12562405 
W       7.94089619       4.77564746       4.76171729       74       0.18819978      -0.07823935       0.09747482 
W       6.37671473       3.17277516       6.35799477       74      -0.15736257       0.06154217       0.25227262 
W       7.95965440       4.75860289       7.95379383       74      -0.24123928       0.07145763      -0.11887628 
W       6.37428681       6.34514055       0.00184634       74      -0.08916851       0.47499471      -0.15106033 
W       7.95411806       7.95933746       1.57793434       74       0.16400318       0.17107032      -0.05323447 
W       6.34801082       6.36643480       3.18357754       74       0.25301388       0.00328212      -0.19809317 
W       7.95402416       7.95498371       4.76411129       74      -0.07119490      -0.04111130       0.10330540 
W       6.36353792       6.36414611       6.35407187       74       0.00694366      -0.00843660       0.22802272 
W       7.97017697       7.95625756       7.93960619       74      -0.11935699       0.18572825       0.31272320 
53
Lattice="9.541823072845162 7.148316093130381e-19 -8.577979311756457e-18 7.148316093130381e-19 9.541823072845162 7.148316093130381e-18 -8.577979311756457e-18 7.148316093130381e-18 9.541823072845162" Properties=species:S:1:pos:R:3:Z:I:1:forces:R:3 energy=-590.009805296 pbc="T T T"
W       1.58075412       1.57289209       1.57821306       74      -0.06047221      -0.01517142      -0.05985693 
W       0.00413845       0.00004127       3.15478582       74      -0.02152029      -0.01847468      -0.03332736 
W       1.59373863       1.59358495       4.76899757       74      -0.02595337      -0.05210253      -0.00591543 
W       0.00094539      -0.00322463       6.37956101       74       0.01499595       0.01702401       0.05469358 
W       1.57931937       1.57188154       7.95676427       74      -0.05527622       0.02199617       0.13393114 
W      -0.00032220       3.15236896      -0.00256295       74      -0.01417386       0.00155888       0.02310946 
W       1.58207798       4.76538671       1.59230816       74       0.08779077       0.06781680      -0.04976050 
W      -0.00368753       3.17339552       3.17124016       74       0.04662446       0.02406314       0.04778754 
W       1.58203944       4.77192277       4.76761758       74       0.05247632      -0.01200318       0.01065484 
W       0.00385076       3.17125507       6.36335001       74      -0.03842914       0.05174727      -0.00833552 
W       1.58583858       4.77262862       7.95265469       74       0.03853635      -0.05170271      -0.02823753 
W      -0.00447111       6.38668893      -0.00123544       74       0.05177459      -0.03123384      -0.00898417 
W       1.57791119       7.95560005       1.57000562       74      -0.04237223       0.13278111       0.05277159 
W      -0.00505489       6.37009673       3.17420780       74       0.03660081      -0.06224233      -0.00864516 
W       1.59149184       7.94989103       4.76669444       74      -0.01168560       0.00952041       0.02810611 
W      -0.00450332       6.36404110       6.36558175       74       0.05768966      -0.00321513      -0.04344277 
W       1.58131829       7.95686110       7.96235607       74      -0.08550552       0.09064869       0.02103688 
W       3.15627180      -0.00398594       0.00177655       74      -0.00758863       0.03748407      -0.04870459 
W       4.77350002       1.58958660       1.58648183       74      -0.03424801       0.03121038       0.05565751 
W       3.17598024      -0.00146545       3.17780267       74       0.02339224       0.00806797      -0.03045505 
W       4.76863855       1.58379071       4.76987010       74       0.05042288       0.03265593       0.04096441 
W       3.17140926       0.00015096       6.37303067       74       0.06602508      -0.01943681      -0.12049638 
W       4.76957691       1.59370290       7.95103254       74       0.00473827      -0.04247994       0.02942640 
W       3.16578231       3.17368648       0.00105334       74       0.13219712       0.03132615      -0.02304738 
W       4.77053474       4.78044794       1.58114628       74      -0.00844720      -0.13589479       0.06089243 
W       3.17972576       3.17684979       3.17420157       74      -0.05390381      -0.00568510      -0.00099490 
W       4.77237347       4.76505178       4.76902545       74      -0.01597954       0.06771385      -0.00609255 
W       3.17722514       3.18163010       6.36670084       74      -0.00837813      -0.07927235      -0.03613406 
W       4.77051662       4.76849417       7.95234488       74       0.00962572       0.03457494       0.03280009 
W       3.17575208       6.36574879      -0.00124889       74       0.01286852      -0.04086005      -0.02334860 
W       4.77416469       7.95993450       1.58643353       74      -0.03186280      -0.10883086       0.04431468 
W       3.17664266       6.36585299       3.17070374       74      -0.02935802      -0.01272277       0.03556531 
W       4.76945548       7.95293041       4.77354111       74       0.00950789       0.01917130      -0.03073334 
W       3.17654704       6.36284580       6.36055427       74      -0.02249814       0.01393223       0.04603114 
W       4.77313598       7.94871379       7.94997910       74      -0.02507744       0.02607422       0.02711033 
W       6.38561229       0.00170316      -0.00110767       74       0.01722107      -0.01625780      -0.00156559 
W       7.96860744       1.57170737       1.57144376       74      -0.00804432       0.01832676       0.04401753 
W       6.36893712      -0.00296360       3.18270481       74      -0.04067262       0.05604434      -0.09879583 
W       7.95607199       1.58873536       4.77059871       74      -0.05813551       0.00638770       0.00405874 
W       6.36108764       0.00297193       6.37380267       74       0.06641115      -0.02975845      -0.12093268 
W       7.96940294       1.57209664       7.96797301       74      -0.00234215       0.00866779      -0.02309553 
W       6.36280622       3.17662578       0.00294280       74       0.03314290      -0.01819218      -0.04144877 
W       7.94873958       4.77084487       1.59212001       74       0.00203122      -0.00822457      -0.05269293 
W       6.36604990       3.17003166       3.17648418       74      -0.00747363       0.06530732      -0.02740969 
W       7.95022092       4.77369559       4.76663889       74       0.04415401      -0.05579774       0.04785723 
W       6.37351043       3.17337808       6.36911983       74      -0.09675605       0.01249122      -0.05749597 
W       7.95287727       4.76257403       7.94993996       74      -0.01621747       0.09649492       0.01289036 
W       6.37395242       6.36725619      -0.00407691       74      -0.11186692      -0.00037105       0.02032606 
W       7.96360229       7.96941099       1.57235670       74       0.05300428      -0.01688534       0.01175906 
W       6.36064413       6.36939927       3.17582500       74       0.06041883      -0.04089096      -0.02887364 
W       7.95295792       7.95487053       4.76799653       74      -0.03821054      -0.03191680       0.03066331 
W       6.36581161       6.36742349       6.36490647       74       0.00281241      -0.04715647      -0.01143522 
W       7.96777161       7.96751621       7.95585401       74      -0.00201316      -0.02630773       0.11383234 
53
Lattice="9.541823072845162 7.148316093130381e-19 -8.577979311756457e-18 7.148316093130381e-19 9.541823072845162 7.148316093130381e-18 -8.577979311756457e-18 7.148316093130381e-18 9.541823072845162" Properties=species:S:1:pos:R:3:Z:I:1:forces:R:3 energy=-590.021343304 pbc="T T T"
W       1.57726728       1.57206106       1.57458538       74      -0.01643387       0.02696201      -0.00441310 
W       0.00218103      -0.00037134       3.15217152       74      -0.01348665      -0.01067604       0.03004958 
W       1.59179348       1.59130259       4.76868890       74      -0.00963645      -0.02770874       0.00801810 
W       0.00080246      -0.00214382       6.38364660       74       0.00332434       0.01261957       0.00200467 
W       1.57613153       1.57337224       7.96394085       74      -0.00739676       0.00760492       0.01310755 
W      -0.00036065       3.15214169      -0.00175857       74      -0.00520785       0.02574212       0.01271587 
W       1.58678234       4.76862103       1.58968395       74       0.02829254       0.01872403      -0.01281483 
W      -0.00154621       3.17416005       3.17337990       74       0.02032738       0.00867902       0.00635459 
W       1.58465892       4.77121781       4.76864296       74       0.02574272      -0.01046395       0.00116572 
W       0.00214388       3.17351336       6.36352865       74      -0.02439966       0.01167883       0.01331851 
W       1.58823376       4.76983198       7.95173613       74       0.01377987      -0.00120666      -0.02150999 
W      -0.00144949       6.38663331      -0.00057357       74       0.01232047      -0.02693396      -0.02272522 
W       1.57528455       7.96295298       1.57210442       74       0.00661272       0.02626689       0.02361165 
W      -0.00302464       6.36729342       3.17366947       74       0.02588071      -0.01919665       0.00399652 
W       1.59122637       7.95042193       4.76844851       74      -0.02060145       0.00755311       0.00402942 
W      -0.00158950       6.36427510       6.36407333       74       0.01561632       0.00785511       0.00410829 
W       1.57688817       7.96260146       7.96411129       74      -0.01818523       0.01986778       0.00297988 
W       3.15431464      -0.00168454      -0.00023672       74       0.02493041       0.00271309      -0.01770925 
W       4.77154512       1.59059894       1.58863780       74      -0.00579265      -0.00732075       0.00901407 
W       3.17642947      -0.00109449       3.17554617       74       0.00110467       0.00640715      -0.01004746 
W       4.77063599       1.58509188       4.77086925       74       0.01023099       0.01711150       0.00049455 
W       3.17412525      -0.00079102       6.36766845       74       0.02120298       0.00095598      -0.03263514 
W       4.76989821       1.59153105       7.95139146       74       0.01122581      -0.02894326       0.00755928 
W       3.17135003       3.17441977      -0.00049477       74       0.05584217       0.00999578      -0.00332768 
W       4.77037772       4.77381976       1.58462150       74       0.00188272      -0.04205853       0.00408749 
W       3.17722428       3.17637551       3.17385766       74      -0.02469927      -0.01454032       0.00776886 
W       4.77161548       4.76822886       4.76858860       74      -0.00970559       0.02403286       0.01216033 
W       3.17670493       3.17756342       6.36566886       74      -0.00976158      -0.03178395      -0.01627559 
W       4.77123673       4.76971345       7.95331064       74      -0.00562878       0.00915430       0.00978460 
W       3.17594820       6.36446694      -0.00208131       74      -0.00225619       0.00599049       0.00481582 
W       4.77248577       7.95477294       1.58845014       74      -0.02030886      -0.04397152       0.00537686 
W       3.17562287       6.36542550       3.17266640       74      -0.00980939       0.00165103       0.01188009 
W       4.76970454       7.95334265       4.77162109       74       0.01808536       0.01086701      -0.01767493 
W       3.17562507       6.36431412       6.36275626       74      -0.00295385       0.00149008       0.02582585 
W       4.77208589       7.94981933       7.95100792       74      -0.01837535       0.01929189      -0.00056203 
W       6.38707571      -0.00017725      -0.00104451       74      -0.01334420       0.00744129      -0.00347661 
W       7.96875650       1.57197106       1.57317009       74      -0.02792321       0.03347606       0.01611134 
W       6.36731567      -0.00091053       3.17694876       74      -0.01375832       0.01163193      -0.02421631 
W       7.95344913       1.58919524       4.77020175       74      -0.01744096      -0.00152408      -0.00011861 
W       6.36428549       0.00117630       6.36849814       74       0.02780383      -0.02228192      -0.04164683 
W       7.96940686       1.57237992       7.96712612       74      -0.02760764       0.01902765      -0.02293091 
W       6.36485872       3.17538016       0.00032614       74       0.01652970      -0.00804814      -0.01233221 
W       7.94975885       4.77043252       1.58995768       74       0.01196229      -0.00452032      -0.02339991 
W       6.36603756       3.17307370       3.17490805       74       0.00059748       0.02233332      -0.00314434 
W       7.95287202       4.77105724       4.76873838       74       0.01759975      -0.01522443       0.01093660 
W       6.36895459       3.17424230       6.36685774       74      -0.03085521       0.00204059      -0.02383383 
W       7.95176136       4.76695214       7.95039082       74       0.00615673       0.03830566       0.00573684 
W       6.36906321       6.36753208      -0.00290443       74      -0.03653223      -0.02149737       0.02027955 
W       7.96641457       7.96866469       1.57270250       74       0.00239723      -0.03099699       0.01409149 
W       6.36394466       6.36671131       3.17420139       74       0.02197095      -0.00560525       0.00051770 
W       7.95154828       7.95297888       4.76915655       74      -0.00533986      -0.01864956       0.00544458 
W       6.36592659       6.36534315       6.36513251       74       0.00252457      -0.00252511      -0.01175579 
W       7.96749817       7.96675383       7.96219517       74      -0.00650366      -0.02179359       0.02920434 
53
Lattice="9.541823072845162 7.148316093130381e-19 -8.577979311756457e-18 7.148316093130381e-19 9.541823072845162 7.148316093130381e-18 -8.577979311756457e-18 7.148316093130381e-18 9.541823072845162" Properties=species:S:1:pos:R:3:Z:I:1:forces:R:3 energy=-590.023301725 pbc="T T T"
W       1.57582994       1.57354508       1.57381810       74      -0.00263858       0.01476648       0.00496210 
W       0.00072660      -0.00085842       3.15342746       74      -0.00630597       0.00052659       0.01339949 
W       1.59065472       1.58961761       4.76922148       74      -0.00356425      -0.00536454       0.00410422 
W       0.00049460      -0.00125682       6.38466915       74      -0.00312320       0.00391171      -0.00013225 
W       1.57521748       1.57431904       7.96560751       74       0.00415893       0.00003615      -0.01010225 
W      -0.00044267       3.15380448      -0.00122900       74       0.00523060       0.00891639       0.00087067 
W       1.58928940       4.77017463       1.58865475       74       0.00364580      -0.00238430      -0.00027757 
W      -0.00022404       3.17476062       3.17421988       74       0.00243314      -0.00167356      -0.00344944 
W       1.58647186       4.77054342       4.76925266       74       0.00486183      -0.00561391      -0.00018804 
W       0.00061156       3.17454286       6.36433248       74      -0.00697864      -0.00187138       0.00986796 
W       1.58956393       4.76941023       7.95058854       74       0.00464102       0.00651808      -0.00476955 
W      -0.00008419       6.38557416      -0.00130081       74      -0.00090127      -0.00371717      -0.00473491 
W       1.57525202       7.96552141       1.57372773       74       0.00503505      -0.00288384       0.00140764 
W      -0.00115645       6.36578814       3.17401135       74       0.01075262      -0.00143626       0.00014273 
W       1.59028227       7.95089015       4.76930776       74      -0.00539299       0.00073005      -0.00108739 
W      -0.00025415       6.36487153       6.36423715       74       0.00041121       0.00600668       0.00845937 
W       1.57536252       7.96489622       7.96462520       74       0.00219203       0.00179575       0.00206725 
W       3.15501150      -0.00112179      -0.00147979       74       0.00830483       0.00111436       0.00351035 
W       4.77085017       1.59011086       1.58922317       74       0.00201877      -0.01085553      -0.00467591 
W       3.17636689      -0.00080628       3.17455964       74      -0.00809807       0.00186547      -0.00317148 
W       4.77123746       1.58594202       4.77067387       74      -0.00308610       0.00508698      -0.01133874 
W       3.17553242      -0.00093045       6.36513572       74      -0.00005274       0.00161563       0.00147140 
W       4.77058578       1.58961097       7.95114395       74       0.00537327      -0.00481339      -0.00384588 
W       3.17494975       3.17487514      -0.00121278       74       0.00556437      -0.00242177       0.00097555 
W       4.77064522       4.77060140       1.58564534       74       0.00212974      -0.00233062      -0.00405223 
W       3.17566905       3.17546746       3.17424252       74       0.00001459      -0.00627145       0.00253161 
W       4.77105839       4.76994939       4.76918097       74      -0.00291782       0.00126176       0.00565424 
W       3.17609966       3.17520349       6.36482933       74      -0.00448073      -0.00331552       0.00041843 
W       4.77120662       4.77024892       7.95362723       74      -0.00431508      -0.00287215      -0.00105698 
W       3.17585364       6.36481822      -0.00191059       74      -0.00616278       0.00919215       0.00760366 
W       4.77113833       7.95160535       1.58904202       74      -0.00317113      -0.00494048      -0.00545698 
W       3.17525495       6.36546695       3.17382971       74       0.00311289       0.00010354       0.00425860 
W       4.77063387       7.95375428       4.77030506       74       0.00431131       0.00395561      -0.00792312 
W       3.17545942       6.36500749       6.36440319       74       0.00290839       0.00019348       0.00401160 
W       4.77105182       7.95086614       7.95086354       74      -0.00269727       0.00225176      -0.00551229 
W       6.38647564      -0.00057706      -0.00136022       74      -0.00242297       0.00106842       0.00246315 
W       7.96718891       1.57380783       1.57428715       74      -0.01114645       0.01124511      -0.00057444 
W       6.36631574      -0.00041101       3.17456173       74       0.00154055      -0.00312079      -0.00031496 
W       7.95205783       1.58924528       4.77001469       74       0.00061414      -0.00126365      -0.00468411 
W       6.36604539      -0.00044296       6.36548187       74       0.00527341      -0.00640878      -0.00158418 
W       7.96766242       1.57360662       7.96558163       74      -0.01408849       0.00911196      -0.00510095 
W       6.36610205       3.17475440      -0.00112754       74       0.00281846      -0.00042095       0.00018527 
W       7.95093881       4.77017408       1.58864674       74       0.00808416      -0.00055645      -0.00016337 
W       6.36617171       3.17468681       3.17444537       74      -0.00115979       0.00314919       0.00235980 
W       7.95444897       4.76998763       4.76967030       74       0.00319484       0.00117479      -0.00376817 
W       6.36662809       3.17462527       6.36533905       74      -0.00307243       0.00150627      -0.00311783 
W       7.95174102       4.76959645       7.95057718       74       0.00202426       0.00286857      -0.00146767 
W       6.36655129       6.36640994      -0.00171512       74      -0.00177568      -0.01144060       0.00598608 
W       7.96683291       7.96661134       1.57366430       74      -0.00630891      -0.01082828       0.00346043 
W       6.36579198       6.36564409       3.17401828       74       0.00059559      -0.00013025       0.00467391 
W       7.95120060       7.95150254       4.76967095       74       0.00706271      -0.00619563      -0.00374348 
W       6.36608768       6.36500110       6.36477482       74      -0.00036483       0.00437538      -0.00042504 
W       7.96684003       7.96551940       7.96468730       74      -0.00408230      -0.00121708       0.00187374 
53
Lattice="9.541823072845162 7.148316093130381e-19 -8.577979311756457e-18 7.148316093130381e-19 9.541823072845162 7.148316093130381e-18 -8.577979311756457e-18 7.148316093130381e-18 9.541823072845162" Properties=species:S:1:pos:R:3:Z:I:1:forces:R:3 energy=-590.023436972 pbc="T T T"
W       1.57556435       1.57431966       1.57396355       74      -0.00147268       0.00353991       0.00184299 
W       0.00025008      -0.00085868       3.15407900       74      -0.00230893       0.00085074       0.00163305 
W       1.59030018       1.58926769       4.76945455       74      -0.00172640      -0.00054229       0.00169825 
W       0.00024536      -0.00097030       6.38481415       74      -0.00229128       0.00055831       0.00171972 
W       1.57528398       1.57449751       7.96537106       74       0.00213783      -0.00108283      -0.00439915 
W      -0.00019361       3.15441550      -0.00117876       74       0.00286067       0.00173713      -0.00166399 
W       1.58979040       4.77022609       1.58859014       74       0.00119932      -0.00221376       0.00066589 
W       0.00000400       3.17476264       3.17420381       74      -0.00048194      -0.00101547      -0.00057374 
W       1.58688799       4.77023180       4.76939252       74      -0.00040935      -0.00210830       0.00085194 
W       0.00017109       3.17462772       6.36479211       74      -0.00168823      -0.00071166       0.00273121 
W       1.58993288       4.76968268       7.95036675       74       0.00128603       0.00379043      -0.00018198 
W       0.00007762       6.38537888      -0.00144782       74      -0.00170741       0.00107737       0.00014421 
W       1.57544339       7.96567115       1.57399891       74      -0.00018990      -0.00157261      -0.00094331 
W      -0.00044784       6.36552398       3.17409698       74       0.00426812       0.00009482      -0.00010964 
W       1.59001652       7.95096950       4.76943147       74       0.00012026      -0.00061080       0.00026515 
W      -0.00005759       6.36521356       6.36463332       74      -0.00034566       0.00205106       0.00315984 
W       1.57531882       7.96530019       7.96483930       74       0.00161821       0.00138792       0.00154874 
W       3.15537912      -0.00098130      -0.00145252       74       0.00134722       0.00146990       0.00252590 
W       4.77084190       1.58957602       1.58903619       74       0.00131788      -0.00446156      -0.00332835 
W       3.17597418      -0.00073082       3.17429091       74      -0.00493892      -0.00045155      -0.00039072 
W       4.77110781       1.58617907       4.77008644       74      -0.00171287      -0.00017370      -0.00533613 
W       3.17563156      -0.00086854       6.36489078       74      -0.00088196       0.00011214       0.00228298 
W       4.77084481       1.58925060       7.95085132       74       0.00159901      -0.00048246      -0.00387660 
W       3.17552692       3.17480715      -0.00129008       74      -0.00088184      -0.00183459       0.00019698 
W       4.77080236       4.77013153       1.58564493       74       0.00065226       0.00124406      -0.00159338 
W       3.17555664       3.17509172       3.17436047       74       0.00236388      -0.00168599       0.00045831 
W       4.77091131       4.77013186       4.76944637       74      -0.00035765      -0.00063053       0.00189245 
W       3.17585134       3.17484542       6.36475651       74      -0.00150345       0.00041570       0.00141687 
W       4.77104533       4.77016413       7.95359382       74      -0.00168799      -0.00160093      -0.00072145 
W       3.17563550       6.36521559      -0.00155975       74      -0.00227220       0.00331938       0.00269529 
W       4.77089753       7.95105012       1.58888922       74       0.00036040       0.00042476      -0.00298305 
W       3.17542937       6.36541590       3.17415930       74       0.00280457      -0.00065980       0.00206593 
W       4.77087271       7.95391778       4.76981521       74       0.00033031       0.00225823      -0.00281763 
W       3.17559141       6.36513778       6.36472514       74       0.00142109       0.00098960      -0.00024571 
W       4.77086812       7.95102201       7.95061905       74       0.00061318      -0.00115132      -0.00259784 
W       6.38628335      -0.00066044      -0.00132294       74       0.00106578      -0.00160874       0.00122752 
W       7.96654714       1.57445202       1.57435682       74      -0.00185740       0.00193688      -0.00274335 
W       6.36625161      -0.00057023       3.17421697       74       0.00133564      -0.00267368       0.00189803 