53
Lattice="9.541823072845162 7.148316093130381e-19 -8.577979311756457e-18 7.148316093130381e-19 9.541823072845162 7.148316093130381e-18 -8.577979311756457e-18 7.148316093130381e-18 9.541823072845162" Properties=species:S:1:pos:R:3:Z:I:1:forces:R:3 energy=-590.023459509 pbc="T T T"
W       1.57537891       1.57455606       1.57405995       74       0.00005022      -0.00015358      -0.00009263 
W       0.00000159      -0.00082940       3.15415782       74       0.00002430      -0.00005079      -0.00006601 
W       1.59004995       1.58920030       4.76959134       74      -0.00004405      -0.00000406      -0.00007605 
W       0.00000430      -0.00085125       6.38501102       74       0.00004359       0.00004386      -0.00006414 
W       1.57538730       1.57451593       7.96511266       74      -0.00003575       0.00018601       0.00009711 
W       0.00001307       3.15463821      -0.00132905       74      -0.00012157       0.00006710       0.00003028 
W       1.59004335       4.77007586       1.58869759       74       0.00002823       0.00001421       0.00009105 
W       0.00000225       3.17470348       3.17421365       74       0.00001802       0.00004285      -0.00001508 
W       1.58693022       4.77006511       4.76957267       74       0.00005711       0.00008935       0.00006543 
W       0.00000231       3.17468709       6.36496449       74       0.00006723       0.00006260      -0.00012185 
W       1.59005161       4.77006101       7.95044056       74      -0.00008092       0.00003130       0.00010767 
W       0.00000318       6.38549858      -0.00134605       74       0.00003602      -0.00002145       0.00006778 
W       1.57537813       7.96562045       1.57403175       74       0.00000877      -0.00007169       0.00010159 
W       0.00000660       6.36544917       3.17418702       74      -0.00003704      -0.00001051       0.00014969 
W       1.59004278       7.95094109       4.76956601       74       0.00002410       0.00003727       0.00009084 
W       0.00000310       6.36543769       6.36494191       74       0.00004959      -0.00001513       0.00002068 
W       1.57539210       7.96558994       7.96509446       74      -0.00008145       0.00010147       0.00012503 
W       3.15548668      -0.00083628      -0.00132613       74       0.00005758      -0.00004887      -0.00009128 
W       4.77091453       1.58919933       1.58871869       74      -0.00000686       0.00013026      -0.00000397 
W       3.17553838      -0.00082728       3.17420957       74       0.00007232      -0.00007248      -0.00002250 
W       4.77092533       1.58609808       4.76958700       74      -0.00007058      -0.00005591       0.00002503 
W       3.17555196      -0.00084360       6.36495499       74      -0.00005231       0.00001012      -0.00005669 
W       4.77092725       1.58919397       7.95045845       74      -0.00008695       0.00002270       0.00001476 
W       3.17554730       3.17469153      -0.00132891       74      -0.00002039       0.00008827      -0.00001648 
W       4.77090774       4.77008119       1.58559205       74       0.00006595      -0.00004894       0.00012704 
W       3.17571105       3.17487360       3.17437659       74      -0.00008899      -0.00006874      -0.00002187 
W       4.77091187       4.77008157       4.76958776       74       0.00002876      -0.00005165      -0.00006784 
W       3.17570723       3.17485436       6.36479953       74       0.00003519       0.00003947      -0.00009873 
W       4.77091594       4.77006727       7.95356227       74       0.00001790       0.00002189       0.00003019 
W       3.17553420       6.36545122      -0.00133404       74       0.00011980      -0.00008776      -0.00007307 
W       4.77091705       7.95094945       1.58869924       74      -0.00004871      -0.00001730       0.00013336 
W       3.17570119       6.36529237       3.17436668       74       0.00000431      -0.00004650      -0.00006339 
W       4.77091398       7.95406662       4.76957033       74       0.00004277      -0.00014023       0.00010856 
W       3.17570772       6.36527830       6.36478037       74      -0.00002196       0.00000419       0.00004745 
W       4.77091811       7.95093883       7.95044385       74      -0.00000093       0.00001420       0.00009834 
W       6.38634526      -0.00084193      -0.00131766       74      -0.00002941       0.00004301      -0.00011587 
W       7.96642755       1.57456673       1.57407047       74       0.00022562      -0.00020995      -0.00011986 
W       6.36629421      -0.00083478       3.17421930       74      -0.00007902       0.00003457      -0.00012158 
W       7.95179370       1.58920111       4.76959244       74      -0.00008343       0.00000210      -0.00000253 
W       6.36630014      -0.00085049       6.36496053       74      -0.00009603       0.00010190      -0.00006072 
W       7.96645173       1.57452419       7.96513420       74       0.00004808       0.00007896      -0.00011307 
W       6.36629249       3.17470366      -0.00131850       74      -0.00005258      -0.00005264      -0.00007430 
W       7.95178851       4.77008741       1.58870977       74      -0.00005182      -0.00009859      -0.00002502 
W       6.36611528       3.17488544       3.17438862       74       0.00011588      -0.00018548      -0.00014083 
W       7.95489907       4.77007540       4.76957647       74      -0.00004929      -0.00004260       0.00007999 
W       6.36613129       3.17485528       6.36480292       74      -0.00003926       0.00004993      -0.00006632 
W       7.95179306       4.77005902       7.95044882       74      -0.00005074       0.00010168       0.00005957 
W       6.36628837       6.36544027      -0.00133205       74      -0.00001628       0.00007998      -0.00002225 
W       7.96645716       7.96561840       1.57403435       74      -0.00007478      -0.00007141       0.00011522 
W       6.36611506       6.36529290       3.17436952       74       0.00014379      -0.00004865      -0.00005505 
W       7.95179199       7.95093203       4.76956635       74      -0.00006696       0.00014376       0.00014553 
W       6.36612395       6.36527603       6.36479174       74       0.00003407       0.00002312      -0.00007232 
W       7.96644434       7.96559514       7.96510857       74       0.00006886       0.00000880       0.00000911 
