2
Lattice="3.330732710622417 0.0 0.0 -1.665366355311208 2.884499140614817 0.0 0.0 0.0 3.330732710622417" Properties=species:S:1:pos:R:3:Z:I:1:forces:R:3 energy=-325.453196914 stress="-0.03353344664856078 6.022218407461069e-18 3.703562179646215e-34 6.022218407461069e-18 -0.03353344664856077 -2.13825262137926e-34 3.703562179646215e-34 -2.13825262137926e-34 -0.05934986019602175" pbc="T T T"
Si       0.00000000       0.00000000       0.00000000       14       0.00000000      -0.00000000       0.00000000 
Si       0.00000000       1.92299943       1.66536636       14      -0.00000000       0.00000000      -0.00000000 
2
Lattice="3.366754970506657 -6.469180422362678e-18 -3.978436238029287e-34 -1.6833774852533279 2.9156953327762936 3.978436238029287e-34 -3.978436238029287e-34 2.296951232979972e-34 3.394487448108256" Properties=species:S:1:pos:R:3:Z:I:1:forces:R:3 energy=-325.481212163 stress="0.005179628661170258 1.6061501184367938e-18 -2.1667434797961724e-35 1.6061501184367938e-18 0.005179628661170256 -3.8953557900935556e-35 -2.1667434797961724e-35 -3.8953557900935556e-35 0.0006050323974004267" pbc="T T T"
Si       0.00000000      -0.00000000      -0.00000000       14      -0.00000000       0.00000000       0.00000000 
Si       0.00000000       1.94379689       1.69724372       14       0.00000000      -0.00000000      -0.00000000 
2
Lattice="3.3636922419496913 -6.609676759024246e-18 -3.7367448363346305e-34 -1.681846120974845 2.9130429320410656 3.8576091935719345e-34 -3.7386788824181734e-34 2.296949194814242e-34 3.391390131532" Properties=species:S:1:pos:R:3:Z:I:1:forces:R:3 energy=-325.481409857 stress="0.002570865433782283 -8.4761254387783935e-19 -3.6082355434101927e-34 -8.4761254387783935e-19 0.0025708654337822817 2.0624489645818724e-34 -3.6082355434101927e-34 2.0624489645818724e-34 -0.0030497249633413487" pbc="T T T"
Si       0.00000000      -0.00000000      -0.00000000       14      -0.00000000       0.00000000       0.00000000 
Si       0.00000000       1.94202862       1.69569507       14       0.00000000      -0.00000000      -0.00000000 
2
Lattice="3.362108302329988 -6.345518609831628e-18 -2.3581378928838507e-34 -1.6810541511649932 2.9116712000923415 2.5137054877087336e-34 -2.373662717734149e-34 1.5486857047396869e-34 3.391918338067794" Properties=species:S:1:pos:R:3:Z:I:1:forces:R:3 energy=-325.481497009 stress="0.0018786958957190353 5.652070008494957e-19 -6.09010805670428e-37 5.652070008494957e-19 0.0018786958957190346 -1.2955727383020612e-36 -6.09010805670428e-37 -1.2955727383020612e-36 -0.0037364205338872854" pbc="T T T"
Si       0.00000000       0.00000000       0.00000000       14       0.00000000      -0.00000000      -0.00000000 
Si       0.00000000       1.94111413       1.69595917       14      -0.00000000       0.00000000       0.00000000 
2
Lattice="3.3595350152510677 -6.530914701307287e-18 -1.147482102814819e-34 -1.6797675076255332 2.9094426681107666 1.3818322818904501e-34 -1.177185729887746e-34 9.483209429702181e-35 3.394073090294732" Properties=species:S:1:pos:R:3:Z:I:1:forces:R:3 energy=-325.481656876 stress="0.0011589624352727347 1.7312034481802862e-19 -9.046822756378831e-35 1.7312034481802862e-19 0.0011589624352727338 -2.607882976953302e-34 -9.046822756378831e-35 -2.607882976953302e-34 -0.004110007860709383" pbc="T T T"
Si       0.00000000       0.00000000       0.00000000       14       0.00000000      -0.00000000      -0.00000000 
Si       0.00000000       1.93962845       1.69703655       14      -0.00000000       0.00000000       0.00000000 
2
Lattice="3.354856160227432 -6.567120056919201e-18 2.386445034549875e-34 -1.6774280801137154 2.905390660799674 -3.548594189901086e-35 2.318383129121736e-34 9.851525569529974e-35 3.3993661730462974" Properties=species:S:1:pos:R:3:Z:I:1:forces:R:3 energy=-325.481932795 stress="0.0002890397751455075 2.5013206746949528e-20 2.294822170096209e-35 2.5013206746949528e-20 0.00028903977514550713 3.9591288363106423e-35 2.294822170096209e-35 3.9591288363106423e-35 -0.003982345080879925" pbc="T T T"
Si       0.00000000       0.00000000       0.00000000       14      -0.00000000       0.00000000      -0.00000000 
Si       0.00000000       1.93692711       1.69968309       14      -0.00000000       0.00000000      -0.00000000 
2
Lattice="3.342651834747622 -6.345412939137508e-18 1.214337255231497e-33 -1.6713259173738104 2.8948214048981047 -8.344671075299207e-34 1.1975285125292113e-33 -2.5634629873510164e-34 3.4159607448513793" Properties=species:S:1:pos:R:3:Z:I:1:forces:R:3 energy=-325.482315515 stress="-0.0010466709865544202 1.658819431899108e-19 2.0076793268066268e-36 1.658819431899108e-19 -0.0010466709865544184 2.528592010881725e-36 2.0076793268066268e-36 2.528592010881725e-36 -0.0018889574304260122" pbc="T T T"
Si       0.00000000       0.00000000       0.00000000       14       0.00000000      -0.00000000      -0.00000000 
Si       0.00000000       1.92988094       1.70798037       14      -0.00000000       0.00000000      -0.00000000 
2
Lattice="3.3423190633706805 -6.277430522430917e-18 1.329323381699844e-33 -1.6711595316853396 2.8945332164320208 -9.578442763669394e-34 1.3114532666853202e-33 -3.3162962118483012e-34 3.4180008127461123" Properties=species:S:1:pos:R:3:Z:I:1:forces:R:3 energy=-325.482337649 stress="-0.000609402081196163 -1.4946850008738695e-19 3.6076313956466376e-34 -1.4946850008738695e-19 -0.0006094020811961626 -2.062942865904892e-34 3.6076313956466376e-34 -2.062942865904892e-34 -0.0009061541845767945" pbc="T T T"
Si       0.00000000       0.00000000       0.00000000       14      -0.00000000       0.00000000       0.00000000 
Si       0.00000000       1.92968881       1.70900041       14       0.00000000      -0.00000000      -0.00000000 
