2
Lattice="3.341710815430899 -5.357198701155662e-18 -8.885437333284537e-34 -1.670855407715449 2.8940064582643705 1.2495479993161658e-33 -9.573675371539172e-34 9.656683991288715e-34 3.419244854331075" Properties=species:S:1:pos:R:3:Z:I:1:forces:R:3 stress="-0.000549592746620319 9.638912995417373e-20 -2.877332429101788e-33 9.638912995417373e-20 -0.0005495927466203181 -1.6615796202854116e-33 -2.877332429101788e-33 -1.6615796202854116e-33 -0.0005528287246919669" energy=-325.482339458 Minim_Constant_Volume=T Minim_Hydrostatic_Strain=F pbc="T T T"
Si       0.00000000       0.00000000       0.00000000       14      -0.00000000       0.00000000       0.00000000 
Si       0.00000000       1.92933764       1.70962243       14       0.00000000      -0.00000000      -0.00000000 
2
Lattice="3.2876312486930415 3.131532454110378e-17 -6.490997658824363e-34 -1.6438156243465203 2.8471721796437297 7.590240080261814e-32 -6.903695113958387e-34 8.928641593455114e-32 3.443710296323953" Properties=species:S:1:pos:R:3:Z:I:1:forces:R:3 stress="-0.0185154668095469 5.951898084172629e-18 -6.285700342429254e-34 5.951898084172629e-18 -0.018515466809546913 1.7054012971504172e-35 -6.285700342429254e-34 1.7054012971504172e-35 -0.01854040500118189" energy=-325.474022881 Minim_Constant_Volume=T Minim_Hydrostatic_Strain=F pbc="T T T"
Si       0.00000000       0.00000000       0.00000000       14      -0.00000000       0.00000000       0.00000000 
Si      -0.00000000       1.89811479       1.72185515       14      -0.00000000      -0.00000000      -0.00000000 
2
Lattice="3.227728672861865 -4.525488599115604e-18 1.0215662334357193e-32 -1.613864336430932 2.7952950272218073 5.045950832828478e-32 1.0710087844515073e-32 6.247286334688222e-32 3.4807644291953053" Properties=species:S:1:pos:R:3:Z:I:1:forces:R:3 stress="-0.03055406344407472 7.85790082169866e-18 2.4912640402276508e-33 7.85790082169866e-18 -0.030554063444074735 7.796869915053483e-33 2.4912640402276508e-33 7.796869915053483e-33 -0.030553377872216493" energy=-325.453283962 Minim_Constant_Volume=T Minim_Hydrostatic_Strain=F pbc="T T T"
Si       0.00000000       0.00000000       0.00000000       14       0.00000000      -0.00000000       0.00000000 
Si      -0.00000000       1.86353002       1.74038221       14      -0.00000000       0.00000000       0.00000000 
2
Lattice="3.164964713604827 2.1635193586408853e-17 7.616979456933794e-33 -1.5824823568024131 2.7409398440631207 4.8421982522450925e-32 7.560384031948938e-33 5.622963248345975e-32 3.524694901106658" Properties=species:S:1:pos:R:3:Z:I:1:forces:R:3 stress="-0.038830273876601554 1.2133138095418844e-17 -2.1025733291323504e-33 1.2133138095418844e-17 -0.038830273876601505 -1.1706362805247276e-34 -2.1025733291323504e-33 -1.1706362805247276e-34 -0.03882647495169828" energy=-325.424442699 Minim_Constant_Volume=T Minim_Hydrostatic_Strain=F pbc="T T T"
Si       0.00000000       0.00000000       0.00000000       14      -0.00000000       0.00000000       0.00000000 
Si       0.00000000       1.82729323       1.76234745       14       0.00000000      -0.00000000      -0.00000000 
2
Lattice="3.101974973469145 6.689102709350618e-17 1.458432837977358e-32 -1.550987486734572 2.68638912892784 5.589462745362396e-32 1.5059972723068004e-32 6.833510373740168e-32 3.570069714715962" Properties=species:S:1:pos:R:3:Z:I:1:forces:R:3 stress="-0.0482548355714048 -1.3442156983333808e-17 -1.033996513015436e-33 -1.3442156983333808e-17 -0.048254835571404774 -3.025808908322121e-33 -1.033996513015436e-33 -3.025808908322121e-33 -0.048233672859376485" energy=-325.388687561 Minim_Constant_Volume=T Minim_Hydrostatic_Strain=F pbc="T T T"
Si       0.00000000       0.00000000       0.00000000       14       0.00000000      -0.00000000      -0.00000000 
Si       0.00000000       1.79092609       1.78503486       14       0.00000000      -0.00000000      -0.00000000 
2
Lattice="2.993794803388824 -3.3075870122625446e-16 3.238986268864654e-32 -1.496897401694412 2.592702353452559 1.6028380421954242e-31 3.432105922176694e-32 2.1297837280093514e-31 3.720258331019068" Properties=species:S:1:pos:R:3:Z:I:1:forces:R:3 stress="-0.04341714552985185 6.057681052618449e-19 -3.7034877307076585e-33 6.057681052618449e-19 -0.04341714552985193 5.022093456726323e-33 -3.7034877307076585e-33 5.022093456726323e-33 -0.0435695494045377" energy=-325.345070678 Minim_Constant_Volume=T Minim_Hydrostatic_Strain=F pbc="T T T"
Si       0.00000000       0.00000000       0.00000000       14       0.00000000       0.00000000       0.00000000 
Si      -0.00000000       1.72846824       1.86012917       14      -0.00000000      -0.00000000      -0.00000000 
2
Lattice="3.3887660812001763 1.8114799002839398e-17 -6.584327228089745e-34 -1.6943830406000875 2.934757513802393 -7.499189259000209e-33 -6.990111566516079e-34 -9.235221726128436e-33 3.4077509974401305" Properties=species:S:1:pos:R:3:Z:I:1:forces:R:3 stress="0.021245221590415524 1.9420372168985676e-18 -5.341062800978274e-35 1.9420372168985676e-18 0.021245221590415506 -9.044836458920422e-35 -5.341062800978274e-35 -9.044836458920422e-35 0.02108424765770327" energy=-325.473980667 Minim_Constant_Volume=T Minim_Hydrostatic_Strain=F pbc="T T T"
Si       0.00000000       0.00000000       0.00000000       14       0.00000000       0.00000000       0.00000000 
Si       0.00000000       1.95650501       1.70387550       14       0.00000000      -0.00000000       0.00000000 
2
Lattice="3.4289300511122796 1.274092745003507e-16 1.7807691884755948e-34 -1.714465025556139 2.969540532063108 5.829990776632245e-32 1.3428754503254543e-34 6.755021155087049e-32 3.4097449340574433" Properties=species:S:1:pos:R:3:Z:I:1:forces:R:3 stress="0.04388012048228764 -2.1451915759508916e-17 9.82582454757924e-34 -2.1451915759508916e-17 0.04388012048228763 1.4101044190606689e-32 9.82582454757924e-34 1.4101044190606689e-32 0.0438684869576559" energy=-325.446929804 Minim_Constant_Volume=T Minim_Hydrostatic_Strain=F pbc="T T T"
Si       0.00000000       0.00000000       0.00000000       14       0.00000000      -0.00000000       0.00000000 
Si       0.00000000       1.97969369       1.70487247       14      -0.00000000       0.00000000      -0.00000000 
2
Lattice="3.463181515020011 2.850308670736773e-17 -5.257752710854713e-34 -1.731590757510005 2.99920316992401 7.294401888806289e-32 -5.649380706265149e-34 8.438862156522261e-32 3.4223172096104353" Properties=species:S:1:pos:R:3:Z:I:1:forces:R:3 stress="0.06381764013384178 -1.5392054308177428e-17 1.788353272250259e-33 -1.5392054308177428e-17 0.0638176401338417 1.9841875376434454e-33 1.788353272250259e-33 1.9841875376434454e-33 0.06380969353049727" energy=-325.402071454 Minim_Constant_Volume=T Minim_Hydrostatic_Strain=F pbc="T T T"
Si       0.00000000       0.00000000       0.00000000       14       0.00000000      -0.00000000      -0.00000000 
Si       0.00000000       1.99946878       1.71115860       14      -0.00000000       0.00000000      -0.00000000 
2
Lattice="3.491161552146717 -8.125549962098917e-18 -7.171128853000834e-33 -1.745580776073358 3.0234345928745694 5.44421921462901e-32 -7.132841270413562e-33 5.95920788056868e-32 3.4460421017238976" Properties=species:S:1:pos:R:3:Z:I:1:forces:R:3 stress="0.07822578169162947 -3.2558700087831415e-17 -7.610850685811892e-34 -3.2558700087831415e-17 0.07822578169162939 6.822322883640012e-33 -7.610850685811892e-34 6.822322883640012e-33 0.07821999734888749" energy=-325.342865531 Minim_Constant_Volume=T Minim_Hydrostatic_Strain=F pbc="T T T"
Si       0.00000000       0.00000000       0.00000000       14      -0.00000000       0.00000000      -0.00000000 
Si       0.00000000       2.01562306       1.72302105       14       0.00000000      -0.00000000       0.00000000 
2
Lattice="3.5121826434631465 4.637525550797608e-16 -3.8210170348383975e-32 -1.7560913217315721 3.0416393919698703 -6.766838976702065e-34 -3.7739254149368304e-32 -2.1170660903867836e-32 3.482277959582268" Properties=species:S:1:pos:R:3:Z:I:1:forces:R:3 stress="0.08496321670033508 -2.611598378361424e-17 2.1097374707108458e-33 -2.611598378361424e-17 0.08496321670033496 1.83291677158985e-33 2.1097374707108458e-33 1.83291677158985e-33 0.08496482557610413" energy=-325.274845132 Minim_Constant_Volume=T Minim_Hydrostatic_Strain=F pbc="T T T"
Si       0.00000000       0.00000000       0.00000000       14       0.00000000       0.00000000       0.00000000 
Si       0.00000000       2.02775959       1.74113898       14      -0.00000000       0.00000000      -0.00000000 
2
Lattice="3.522330521724134 7.49391557352968e-16 -6.329831312014437e-32 -1.7611652608620656 3.0504277123383985 -8.498254314007865e-32 -6.210577034198512e-32 -1.3174341707207924e-31 3.5389959669763855" Properties=species:S:1:pos:R:3:Z:I:1:forces:R:3 stress="0.08208173873332764 -5.643056722238158e-17 2.1342682247102618e-33 -5.643056722238158e-17 0.0820817387333275 2.4173648396354765e-33 2.1342682247102618e-33 2.4173648396354765e-33 0.08200690527910988" energy=-325.205207144 Minim_Constant_Volume=T Minim_Hydrostatic_Strain=F pbc="T T T"
Si       0.00000000       0.00000000       0.00000000       14       0.00000000      -0.00000000       0.00000000 
Si       0.00000000       2.03361847       1.76949798       14      -0.00000000       0.00000000      -0.00000000 
