8
Lattice="5.461053051700692 1.7777852424191022e-33 0.0 1.7777852424191022e-33 5.461053051700692 -1.7777852424191022e-33 0.0 -1.7777852424191022e-33 5.461053051700692" Properties=species:S:1:pos:R:3:Z:I:1:forces:R:3 stress="3.4468948293514686e-05 2.7553476924299597e-34 -6.846641209239267e-84 2.7553476924299597e-34 3.4468948293514686e-05 -2.7553476924299597e-34 -6.846641209239267e-84 -2.7553476924299597e-34 3.4468948293514686e-05" energy=-1305.42092988 Minim_Constant_Volume=T Minim_Hydrostatic_Strain=F pbc="T T T"
Si       0.00000000      -0.00000000      -0.00000000       14      -0.00000000       0.00000000       0.00000000 
Si       1.36526326       1.36526326       1.36526326       14      -0.00000000       0.00000000      -0.00000000 
Si       2.73052653       2.73052653      -0.00000000       14       0.00000000       0.00000000       0.00000000 
Si       4.09578979       4.09578979       1.36526326       14      -0.00000000       0.00000000       0.00000000 
Si       2.73052653       0.00000000       2.73052653       14      -0.00000000       0.00000000       0.00000000 
Si       4.09578979       1.36526326       4.09578979       14      -0.00000000       0.00000000       0.00000000 
Si       0.00000000       2.73052653       2.73052653       14      -0.00000000       0.00000000       0.00000000 
Si       1.36526326       4.09578979       4.09578979       14      -0.00000000       0.00000000       0.00000000 
8
Lattice="5.415159679826859 1.7628451642931912e-33 0.0 1.7628451642931912e-33 5.415159679826859 -1.7628451642931912e-33 0.0 -1.7628451642931912e-33 5.415159679826859" Properties=species:S:1:pos:R:3:Z:I:1:forces:R:3 stress="-0.014671788079106584 -5.526311371487266e-53 2.850752990618032e-69 -5.526311371487266e-53 -0.014671788079106584 8.757026972434157e-36 2.850752990618032e-69 8.757026972434157e-36 -0.014671788079106584" energy=-1305.39180725 Minim_Constant_Volume=T Minim_Hydrostatic_Strain=F pbc="T T T"
Si       0.00000000      -0.00000000      -0.00000000       14      -0.00000000      -0.00000000      -0.00000000 
Si       1.35378992       1.35378992       1.35378992       14       0.00000000      -0.00000000      -0.00000000 
Si       2.70757984       2.70757984      -0.00000000       14       0.00000000       0.00000000      -0.00000000 
Si       4.06136976       4.06136976       1.35378992       14       0.00000000       0.00000000      -0.00000000 
Si       2.70757984       0.00000000       2.70757984       14       0.00000000      -0.00000000      -0.00000000 
Si       4.06136976       1.35378992       4.06136976       14      -0.00000000       0.00000000      -0.00000000 
Si       0.00000000       2.70757984       2.70757984       14      -0.00000000       0.00000000       0.00000000 
Si       1.35378992       4.06136976       4.06136976       14       0.00000000       0.00000000      -0.00000000 
8
Lattice="5.368474945721983 1.7476474669714153e-33 0.0 1.7476474669714153e-33 5.368474945721983 -1.7476474669714153e-33 0.0 -1.7476474669714153e-33 5.368474945721983" Properties=species:S:1:pos:R:3:Z:I:1:forces:R:3 stress="-0.03152660804261076 2.8511977478036724e-34 -8.842814629815856e-84 2.8511977478036724e-34 -0.03152660804261077 -2.8511977478036724e-34 -8.842814629815856e-84 -2.8511977478036724e-34 -0.03152660804261076" energy=-1305.29853865 Minim_Constant_Volume=T Minim_Hydrostatic_Strain=F pbc="T T T"
Si       0.00000000      -0.00000000      -0.00000000       14       0.00000000      -0.00000000       0.00000000 
Si       1.34211874       1.34211874       1.34211874       14       0.00000000      -0.00000000      -0.00000000 
Si       2.68423747       2.68423747      -0.00000000       14       0.00000000       0.00000000       0.00000000 
Si       4.02635621       4.02635621       1.34211874       14       0.00000000      -0.00000000      -0.00000000 
Si       2.68423747       0.00000000       2.68423747       14       0.00000000      -0.00000000       0.00000000 
Si       4.02635621       1.34211874       4.02635621       14       0.00000000       0.00000000      -0.00000000 
Si       0.00000000       2.68423747       2.68423747       14       0.00000000       0.00000000       0.00000000 
Si       1.34211874       4.02635621       4.02635621       14       0.00000000      -0.00000000      -0.00000000 
8
Lattice="5.320963826199197 1.732180749043796e-33 0.0 1.732180749043796e-33 5.320963826199197 -1.732180749043796e-33 0.0 -1.732180749043796e-33 5.320963826199197" Properties=species:S:1:pos:R:3:Z:I:1:forces:R:3 stress="-0.050853632955519916 -1.5728619721119317e-51 -4.724126226270076e-68 -1.5728619721119317e-51 -0.050853632955519916 -1.451171003618309e-34 -4.724126226270076e-68 -1.451171003618309e-34 -0.050853632955519916" energy=-1305.13172191 Minim_Constant_Volume=T Minim_Hydrostatic_Strain=F pbc="T T T"
Si       0.00000000      -0.00000000      -0.00000000       14       0.00000000      -0.00000000      -0.00000000 
Si       1.33024096       1.33024096       1.33024096       14      -0.00000000       0.00000000       0.00000000 
Si       2.66048191       2.66048191      -0.00000000       14       0.00000000       0.00000000      -0.00000000 
Si       3.99072287       3.99072287       1.33024096       14       0.00000000       0.00000000       0.00000000 
Si       2.66048191       0.00000000       2.66048191       14       0.00000000      -0.00000000      -0.00000000 
Si       3.99072287       1.33024096       3.99072287       14      -0.00000000       0.00000000       0.00000000 
Si       0.00000000       2.66048191       2.66048191       14      -0.00000000       0.00000000      -0.00000000 
Si       1.33024096       3.99072287       3.99072287       14       0.00000000      -0.00000000       0.00000000 
8
Lattice="5.272588750185197 1.7164327796641892e-33 0.0 1.7164327796641892e-33 5.272588750185197 -1.7164327796641892e-33 0.0 -1.7164327796641892e-33 5.272588750185197" Properties=species:S:1:pos:R:3:Z:I:1:forces:R:3 stress="-0.07297535291214535 7.389608188718731e-35 -6.921910736664398e-84 7.389608188718731e-35 -0.07297535291214535 -7.389608188718732e-35 -6.921910736664398e-84 -7.389608188718732e-35 -0.07297535291214535" energy=-1304.88062939 Minim_Constant_Volume=T Minim_Hydrostatic_Strain=F pbc="T T T"
Si       0.00000000      -0.00000000      -0.00000000       14       0.00000000      -0.00000000       0.00000000 
Si       1.31814719       1.31814719       1.31814719       14       0.00000000       0.00000000      -0.00000000 
Si       2.63629438       2.63629438      -0.00000000       14      -0.00000000       0.00000000      -0.00000000 
Si       3.95444156       3.95444156       1.31814719       14      -0.00000000       0.00000000      -0.00000000 
Si       2.63629438       0.00000000       2.63629438       14      -0.00000000      -0.00000000       0.00000000 
Si       3.95444156       1.31814719       3.95444156       14      -0.00000000       0.00000000      -0.00000000 
Si       0.00000000       2.63629438       2.63629438       14      -0.00000000       0.00000000      -0.00000000 
Si       1.31814719       3.95444156       3.95444156       14       0.00000000       0.00000000      -0.00000000 
8
Lattice="5.2233093366862855 1.7003904132480358e-33 0.0 1.7003904132480358e-33 5.2233093366862855 -1.7003904132480358e-33 0.0 -1.7003904132480358e-33 5.2233093366862855" Properties=species:S:1:pos:R:3:Z:I:1:forces:R:3 stress="-0.09819831368088845 4.149614867460674e-51 2.7501024991374043e-84 4.149614867460674e-51 -0.09819831368088845 -5.601896829407883e-53 2.7501024991374043e-84 -5.601896829407883e-53 -0.09819831368088845" energy=-1304.53325503 Minim_Constant_Volume=T Minim_Hydrostatic_Strain=F pbc="T T T"
Si       0.00000000      -0.00000000      -0.00000000       14       0.00000000      -0.00000000       0.00000000 
Si       1.30582733       1.30582733       1.30582733       14       0.00000000      -0.00000000       0.00000000 
Si       2.61165467       2.61165467      -0.00000000       14       0.00000000      -0.00000000       0.00000000 
Si       3.91748200       3.91748200       1.30582733       14       0.00000000      -0.00000000      -0.00000000 
Si       2.61165467       0.00000000       2.61165467       14       0.00000000      -0.00000000       0.00000000 
Si       3.91748200       1.30582733       3.91748200       14       0.00000000      -0.00000000       0.00000000 
Si       0.00000000       2.61165467       2.61165467       14       0.00000000      -0.00000000       0.00000000 
Si       1.30582733       3.91748200       3.91748200       14      -0.00000000      -0.00000000       0.00000000 
8
Lattice="5.506187768347417 1.7924783487514655e-33 0.0 1.7924783487514655e-33 5.506187768347417 -1.7924783487514655e-33 0.0 -1.7924783487514655e-33 5.506187768347417" Properties=species:S:1:pos:R:3:Z:I:1:forces:R:3 stress="0.012884284100241467 -3.3879514556882556e-35 5.514550072059073e-69 -3.3879514556882556e-35 0.012884284100241464 5.081927183532383e-35 5.514550072059073e-69 5.081927183532383e-35 0.012884284100241472" energy=-1305.39404204 Minim_Constant_Volume=T Minim_Hydrostatic_Strain=F pbc="T T T"
Si       0.00000000      -0.00000000      -0.00000000       14      -0.00000000      -0.00000000       0.00000000 
Si       1.37654694       1.37654694       1.37654694       14       0.00000000      -0.00000000      -0.00000000 
Si       2.75309388       2.75309388      -0.00000000       14       0.00000000       0.00000000       0.00000000 
Si       4.12964083       4.12964083       1.37654694       14      -0.00000000      -0.00000000      -0.00000000 
Si       2.75309388       0.00000000       2.75309388       14      -0.00000000      -0.00000000       0.00000000 
Si       4.12964083       1.37654694       4.12964083       14      -0.00000000      -0.00000000      -0.00000000 
Si       0.00000000       2.75309388       2.75309388       14      -0.00000000      -0.00000000       0.00000000 
Si       1.37654694       4.12964083       4.12964083       14      -0.00000000      -0.00000000      -0.00000000 
8
Lattice="5.550594426121221 1.8069344435939866e-33 0.0 1.8069344435939866e-33 5.550594426121221 -1.8069344435939866e-33 0.0 -1.8069344435939866e-33 5.550594426121221" Properties=species:S:1:pos:R:3:Z:I:1:forces:R:3 stress="0.024139581148983038 1.333583503020964e-34 1.2669342377147999e-83 1.333583503020964e-34 0.024139581148983038 -1.333583503020964e-34 1.2669342377147999e-83 -1.333583503020964e-34 0.024139581148983038" energy=-1305.31817538 Minim_Constant_Volume=T Minim_Hydrostatic_Strain=F pbc="T T T"
Si       0.00000000      -0.00000000      -0.00000000       14       0.00000000       0.00000000      -0.00000000 
Si       1.38764861       1.38764861       1.38764861       14       0.00000000      -0.00000000       0.00000000 
Si       2.77529721       2.77529721      -0.00000000       14      -0.00000000      -0.00000000       0.00000000 
Si       4.16294582       4.16294582       1.38764861       14      -0.00000000      -0.00000000       0.00000000 
Si       2.77529721       0.00000000       2.77529721       14      -0.00000000       0.00000000      -0.00000000 
Si       4.16294582       1.38764861       4.16294582       14       0.00000000       0.00000000      -0.00000000 
Si       0.00000000       2.77529721       2.77529721       14      -0.00000000      -0.00000000       0.00000000 
Si       1.38764861       4.16294582       4.16294582       14       0.00000000      -0.00000000       0.00000000 
8
Lattice="5.59430169359409 1.8211628596822597e-33 0.0 1.8211628596822597e-33 5.59430169359409 -1.8211628596822597e-33 0.0 -1.8211628596822597e-33 5.59430169359409" Properties=species:S:1:pos:R:3:Z:I:1:forces:R:3 stress="0.034093556443069876 6.153875679630408e-35 2.0701034956934624e-68 6.153875679630408e-35 0.034093556443069876 2.0512918932101362e-36 2.0701034956934624e-68 2.0512918932101362e-36 0.034093556443069876" energy=-1305.19923383 Minim_Constant_Volume=T Minim_Hydrostatic_Strain=F pbc="T T T"
Si       0.00000000      -0.00000000      -0.00000000       14       0.00000000      -0.00000000       0.00000000 
Si       1.39857542       1.39857542       1.39857542       14       0.00000000       0.00000000       0.00000000 
Si       2.79715085       2.79715085      -0.00000000       14      -0.00000000      -0.00000000       0.00000000 
Si       4.19572627       4.19572627       1.39857542       14       0.00000000      -0.00000000      -0.00000000 
Si       2.79715085       0.00000000       2.79715085       14      -0.00000000       0.00000000       0.00000000 
Si       4.19572627       1.39857542       4.19572627       14       0.00000000      -0.00000000       0.00000000 
Si       0.00000000       2.79715085       2.79715085       14       0.00000000      -0.00000000       0.00000000 
Si       1.39857542       4.19572627       4.19572627       14      -0.00000000      -0.00000000      -0.00000000 
8
Lattice="5.637336474722937 1.8351723553010168e-33 0.0 1.8351723553010168e-33 5.637336474722937 -1.8351723553010168e-33 0.0 -1.8351723553010168e-33 5.637336474722937" Properties=species:S:1:pos:R:3:Z:I:1:forces:R:3 stress="0.04305236049137495 -1.2928593791200153e-34 7.8441150560018205e-84 -1.2928593791200153e-34 0.04305236049137495 1.2928593791200153e-34 7.8441150560018205e-84 1.2928593791200153e-34 0.04305236049137495" energy=-1305.04189118 Minim_Constant_Volume=T Minim_Hydrostatic_Strain=F pbc="T T T"
Si       0.00000000      -0.00000000      -0.00000000       14      -0.00000000       0.00000000       0.00000000 
Si       1.40933412       1.40933412       1.40933412       14       0.00000000      -0.00000000       0.00000000 
Si       2.81866824       2.81866824      -0.00000000       14       0.00000000      -0.00000000       0.00000000 
Si       4.22800236       4.22800236       1.40933412       14      -0.00000000       0.00000000      -0.00000000 
Si       2.81866824       0.00000000       2.81866824       14       0.00000000       0.00000000       0.00000000 
Si       4.22800236       1.40933412       4.22800236       14       0.00000000      -0.00000000       0.00000000 
Si       0.00000000       2.81866824       2.81866824       14       0.00000000       0.00000000       0.00000000 
Si       1.40933412       4.22800236       4.22800236       14      -0.00000000      -0.00000000      -0.00000000 
8
Lattice="5.679724054835422 1.848971161808191e-33 0.0 1.848971161808191e-33 5.679724054835422 -1.848971161808191e-33 0.0 -1.848971161808191e-33 5.679724054835422" Properties=species:S:1:pos:R:3:Z:I:1:forces:R:3 stress="0.05050903682144926 -9.95026764219958e-37 -7.243866296578154e-86 -9.95026764219958e-37 0.05050903682144926 9.950267642199623e-37 -7.243866296578154e-86 9.950267642199623e-37 0.05050903682144926" energy=-1304.85048842 Minim_Constant_Volume=T Minim_Hydrostatic_Strain=F pbc="T T T"
Si       0.00000000      -0.00000000      -0.00000000       14       0.00000000      -0.00000000      -0.00000000 
Si       1.41993101       1.41993101       1.41993101       14      -0.00000000       0.00000000       0.00000000 
Si       2.83986203       2.83986203      -0.00000000       14       0.00000000      -0.00000000      -0.00000000 
Si       4.25979304       4.25979304       1.41993101       14      -0.00000000      -0.00000000       0.00000000 
Si       2.83986203       0.00000000       2.83986203       14      -0.00000000      -0.00000000      -0.00000000 
Si       4.25979304       1.41993101       4.25979304       14       0.00000000       0.00000000      -0.00000000 
Si       0.00000000       2.83986203       2.83986203       14       0.00000000      -0.00000000      -0.00000000 
Si       1.41993101       4.25979304       4.25979304       14       0.00000000      -0.00000000       0.00000000 
8
Lattice="5.721488231582959 1.8625670262652177e-33 0.0 1.8625670262652177e-33 5.721488231582959 -1.8625670262652177e-33 0.0 -1.8625670262652177e-33 5.721488231582959" Properties=species:S:1:pos:R:3:Z:I:1:forces:R:3 stress="0.05686407376173836 -1.2551082577019454e-34 -1.3325563736436264e-84 -1.2551082577019454e-34 0.05686407376173835 1.2551082577019452e-34 -1.3325563736436264e-84 1.2551082577019452e-34 0.05686407376173836" energy=-1304.63177372 Minim_Constant_Volume=T Minim_Hydrostatic_Strain=F pbc="T T T"
Si       0.00000000      -0.00000000      -0.00000000       14       0.00000000       0.00000000      -0.00000000 
Si       1.43037206       1.43037206       1.43037206       14       0.00000000      -0.00000000      -0.00000000 
Si       2.86074412       2.86074412      -0.00000000       14      -0.00000000       0.00000000       0.00000000 
Si       4.29111617       4.29111617       1.43037206       14      -0.00000000      -0.00000000      -0.00000000 
Si       2.86074412       0.00000000       2.86074412       14      -0.00000000       0.00000000      -0.00000000 
Si       4.29111617       1.43037206       4.29111617       14       0.00000000      -0.00000000      -0.00000000 
Si       0.00000000       2.86074412       2.86074412       14       0.00000000       0.00000000       0.00000000 
Si       1.43037206       4.29111617       4.29111617       14       0.00000000      -0.00000000       0.00000000 
