2
Lattice="3.155066244029609 7.664956986817487e-35 -4.598974192090493e-34 7.664956986817487e-35 3.155066244029609 3.679179353672395e-33 -4.598974192090493e-34 3.679179353672395e-33 3.155066244029609" Properties=species:S:1:pos:R:3:Z:I:1:forces:R:3 stress="7.731434081355891e-07 3.962355828884535e-32 -5.283141105179381e-32 3.962355828884535e-32 7.731434081355892e-07 -4.0619377761842396e-22 -5.283141105179381e-32 -4.0619377761842396e-22 7.731434081355896e-07" energy=-325.160861519 Minim_Constant_Volume=T Minim_Hydrostatic_Strain=F pbc="T T T"
Si       0.00000000       0.00000000       0.00000000       14       0.00000000       0.00000000       0.00000000 
Si       1.57753312       1.57753312       1.57753312       14       0.00000000       0.00000000       0.00000000 
2
Lattice="3.1285518287596936 7.600542538163961e-35 -4.560325522898378e-34 7.600542538163961e-35 3.1285518287596936 3.648260418318702e-33 -4.560325522898378e-34 3.648260418318702e-33 3.1285518287596936" Properties=species:S:1:pos:R:3:Z:I:1:forces:R:3 stress="-0.03527953414380602 1.031629363666072e-29 3.438764545553568e-30 1.031629363666072e-29 -0.03527953414380602 2.5020481853552666e-17 3.438764545553568e-30 2.5020481853552666e-17 -0.03527953414380602" energy=-325.147304862 Minim_Constant_Volume=T Minim_Hydrostatic_Strain=F pbc="T T T"
Si       0.00000000       0.00000000       0.00000000       14       0.00000000       0.00000000       0.00000000 
Si       1.56427591       1.56427591       1.56427591       14       0.00000000       0.00000000       0.00000000 
2
Lattice="3.101580212243366 7.535017359143142e-35 -4.521010415485886e-34 7.535017359143142e-35 3.101580212243366 3.6168083323887085e-33 -4.521010415485886e-34 3.6168083323887085e-33 3.101580212243366" Properties=species:S:1:pos:R:3:Z:I:1:forces:R:3 stress="-0.07415273669824886 -1.3995328777638963e-29 -1.0059142558927999e-29 -1.3995328777638963e-29 -0.07415273669824889 -9.112250308011403e-18 -1.0059142558927999e-29 -9.112250308011403e-18 -0.07415273669824884" energy=-325.104310546 Minim_Constant_Volume=T Minim_Hydrostatic_Strain=F pbc="T T T"
Si       0.00000000       0.00000000       0.00000000       14       0.00000000       0.00000000       0.00000000 
Si       1.55079011       1.55079011       1.55079011       14       0.00000000       0.00000000       0.00000000 
2
Lattice="3.0741311602009738 7.468332292345578e-35 -4.480999375407348e-34 7.468332292345578e-35 3.0741311602009738 3.5847995003258784e-33 -4.480999375407348e-34 3.5847995003258784e-33 3.0741311602009738" Properties=species:S:1:pos:R:3:Z:I:1:forces:R:3 stress="-0.10232293840375113 5.56499000175107e-32 -2.782495000875535e-32 5.56499000175107e-32 -0.10232293840375108 3.760153274779018e-17 -2.782495000875535e-32 3.760153274779018e-17 -0.10232293840375115" energy=-325.033936856 Minim_Constant_Volume=T Minim_Hydrostatic_Strain=F pbc="T T T"
Si       0.00000000       0.00000000       0.00000000       14       0.00000000       0.00000000       0.00000000 
Si       1.53706558       1.53706558       1.53706558       14       0.00000000       0.00000000       0.00000000 
2
Lattice="3.046182966338143 7.400434604231038e-35 -4.440260762538623e-34 7.400434604231038e-35 3.046182966338143 3.5522086100308985e-33 -4.440260762538623e-34 3.5522086100308985e-33 3.046182966338143" Properties=species:S:1:pos:R:3:Z:I:1:forces:R:3 stress="-0.11217358006797869 -9.068118496754394e-30 -1.813623699350877e-30 -9.068118496754394e-30 -0.11217358006797874 5.590974339544247e-17 -1.813623699350877e-30 5.590974339544247e-17 -0.1121735800679788" energy=-324.948299555 Minim_Constant_Volume=T Minim_Hydrostatic_Strain=F pbc="T T T"
Si       0.00000000       0.00000000       0.00000000       14      -0.00000000       0.00000000      -0.00000000 
Si       1.52309148       1.52309148       1.52309148       14       0.00000000      -0.00000000       0.00000000 
2
Lattice="3.0177123009584 7.331267617346132e-35 -4.39876057040768e-34 7.331267617346132e-35 3.0177123009584 3.519008456326144e-33 -4.39876057040768e-34 3.519008456326144e-33 3.0177123009584" Properties=species:S:1:pos:R:3:Z:I:1:forces:R:3 stress="-0.09540326522039244 -1.1550040414953376e-31 -2.310008082990677e-31 -1.1550040414953376e-31 -0.09540326522039258 6.719526373835116e-17 -2.310008082990677e-31 6.719526373835116e-17 -0.09540326522039261" energy=-324.864816128 Minim_Constant_Volume=T Minim_Hydrostatic_Strain=F pbc="T T T"
Si       0.00000000       0.00000000       0.00000000       14      -0.00000000       0.00000000      -0.00000000 
Si       1.50885615       1.50885615       1.50885615       14      -0.00000000       0.00000000      -0.00000000 
2
Lattice="3.181142354182316 7.728306611593904e-35 -4.636983966956343e-34 7.728306611593904e-35 3.181142354182316 3.709587173565075e-33 -4.636983966956343e-34 3.709587173565075e-33 3.181142354182316" Properties=species:S:1:pos:R:3:Z:I:1:forces:R:3 stress="0.0320431044651334 -1.24725199808298e-30 -1.6630026641106398e-30 -1.24725199808298e-30 0.0320431044651334 -1.3450792516788824e-17 -1.6630026641106398e-30 -1.3450792516788824e-17 0.03204310446513339" energy=-325.148140323 Minim_Constant_Volume=T Minim_Hydrostatic_Strain=F pbc="T T T"
Si       0.00000000       0.00000000       0.00000000       14       0.00000000      -0.00000000      -0.00000000 
Si       1.59057118       1.59057118       1.59057118       14      -0.00000000       0.00000000       0.00000000 
2
Lattice="3.2067978359412184 7.790634356543851e-35 -4.674380613926312e-34 7.790634356543851e-35 3.2067978359412184 3.7395044911410496e-33 -4.674380613926312e-34 3.7395044911410496e-33 3.2067978359412184" Properties=species:S:1:pos:R:3:Z:I:1:forces:R:3 stress="0.06261002893706975 -6.392577823622757e-33 -6.392577823622757e-33 -6.392577823622757e-33 0.06261002893706975 -3.5310296526552166e-17 -6.392577823622757e-33 -3.5310296526552166e-17 0.06261002893706977" energy=-325.110920739 Minim_Constant_Volume=T Minim_Hydrostatic_Strain=F pbc="T T T"
Si       0.00000000       0.00000000       0.00000000       14       0.00000000       0.00000000       0.00000000 
Si       1.60339892       1.60339892       1.60339892       14       0.00000000       0.00000000       0.00000000 
2
Lattice="3.232049252273729 7.851980459945379e-35 -4.711188275967229e-34 7.851980459945379e-35 3.232049252273729 3.768950620773783e-33 -4.711188275967229e-34 3.768950620773783e-33 3.232049252273729" Properties=species:S:1:pos:R:3:Z:I:1:forces:R:3 stress="0.09252592074840404 4.027571147809159e-30 -4.027571147809168e-31 4.027571147809159e-30 0.09252592074840403 -2.0012131771111822e-17 -4.027571147809168e-31 -2.0012131771111822e-17 0.09252592074840402" energy=-325.049985522 Minim_Constant_Volume=T Minim_Hydrostatic_Strain=F pbc="T T T"
Si       0.00000000       0.00000000       0.00000000       14       0.00000000      -0.00000000      -0.00000000 
Si       1.61602463       1.61602463       1.61602463       14      -0.00000000       0.00000000       0.00000000 
2
Lattice="3.2569121466593716 7.912382683320044e-35 -4.747429609992028e-34 7.912382683320044e-35 3.2569121466593716 3.7979436879936224e-33 -4.747429609992028e-34 3.7979436879936224e-33 3.2569121466593716" Properties=species:S:1:pos:R:3:Z:I:1:forces:R:3 stress="0.1219503802346897 1.5865255301896278e-30 1.5865255301896278e-30 1.5865255301896278e-30 0.12195038023468963 -8.74646099342943e-17 1.5865255301896278e-30 -8.74646099342943e-17 0.12195038023468965" energy=-324.96574793 Minim_Constant_Volume=T Minim_Hydrostatic_Strain=F pbc="T T T"
Si       0.00000000       0.00000000       0.00000000       14       0.00000000      -0.00000000      -0.00000000 
Si       1.62845607       1.62845607       1.62845607       14      -0.00000000       0.00000000      -0.00000000 
2
Lattice="3.2814011274315606 7.971876516333861e-35 -4.7831259098003175e-34 7.971876516333861e-35 3.2814011274315606 3.826500727840254e-33 -4.7831259098003175e-34 3.826500727840254e-33 3.2814011274315606" Properties=species:S:1:pos:R:3:Z:I:1:forces:R:3 stress="0.15061556965454315 -1.172200143763646e-30 7.814667625090974e-31 -1.172200143763646e-30 0.15061556965454312 6.272227615757732e-19 7.814667625090974e-31 6.272227615757732e-19 0.15061556965454315" energy=-324.858677937 Minim_Constant_Volume=T Minim_Hydrostatic_Strain=F pbc="T T T"
Si       0.00000000       0.00000000       0.00000000       14      -0.00000000       0.00000000       0.00000000 
Si       1.64070056       1.64070056       1.64070056       14       0.00000000      -0.00000000       0.00000000 
2
Lattice="3.3055299434343284 8.030495360598709e-35 -4.8182972163592265e-34 8.030495360598709e-35 3.3055299434343284 3.854637773087381e-33 -4.8182972163592265e-34 3.854637773087381e-33 3.3055299434343284" Properties=species:S:1:pos:R:3:Z:I:1:forces:R:3 stress="0.17802283481904754 -2.3102991626413122e-30 -7.700997208804377e-31 -2.3102991626413122e-30 0.1780228348190475 -4.927681630561718e-17 -7.700997208804377e-31 -4.927681630561718e-17 0.17802283481904754" energy=-324.729557931 Minim_Constant_Volume=T Minim_Hydrostatic_Strain=F pbc="T T T"
Si       0.00000000       0.00000000       0.00000000       14       0.00000000       0.00000000       0.00000000 
Si       1.65276497       1.65276497       1.65276497       14       0.00000000       0.00000000       0.00000000 
