63
Lattice="10.921931286266252 4.367590391441383e-15 4.317390850080648e-15 4.367590391441383e-15 10.921931286266252 4.342975105211956e-15 4.317390850080648e-15 4.342975105211956e-15 10.921931286266252" Properties=species:S:1:pos:R:3:Z:I:1:ind:I:1:map_shift:I:3:n_neighb:I:1 energy=-10276.5647111 pbc="T T T"
Si       0.00000089       0.00038321       0.00076647       14        0        0        0        0       28 
Si       1.36456733       1.36497361       1.36537841       14        1        0        0        0       28 
Si       2.73237732       2.73285052      -0.00466611       14        2        0        0        0       28 
Si       4.09514862       4.09557119       1.37198452       14        3        0        0        0       27 
Si       2.73234085      -0.00506739       2.73328874       14        4        0        0        0       28 
Si       4.09512940       1.37160498       4.09598169       14        5        0        0        0       27 
Si      -0.00548449       2.73277150       2.73324624       14        6        0        0        0       28 
Si       1.37121051       4.09552685       4.09595668       14        7        0        0        0       27 
Si      -0.00000480       0.00049017       5.46200194       14        8        0        0       -1       28 
Si       1.38524736       1.38570350       6.82006929       14        9        0        0       -1       28 
Si       2.78365431       2.78406745       5.46491856       14       10        0        0       -1       27 
Si       4.23576888       4.23622755       6.68716620       14       11        0        0       -1       27 
Si       2.73245046       0.00594619       8.19040620       14       12        0        0       -1       28 
Si       4.10283213       1.38561305       9.53765395       14       13        0        0       -1       28 
Si       0.00550405       2.73290052       8.19042920       14       14        0        0       -1       28 
Si       1.38511556       4.10332271       9.53769517       14       15        0        0       -1       28 
Si      -0.00000479       5.46148426       0.00098054       14       16        0       -1        0       28 
Si       1.38521245       6.81962206       1.38613527       14       17        0       -1        0       28 
Si       2.73240525       8.18998989       0.00639897       14       18        0       -1        0       28 
Si       4.10279176       9.53720350       1.38609588       14       19        0       -1        0       28 
Si       2.78362965       5.46446016       2.78445129       14       20        0       -1        0       27 
Si       4.23572426       6.68669262       4.23660684       14       21        0       -1        0       27 
Si       0.00549591       8.19003141       2.73331149       14       22        0       -1        0       28 
Si       1.38510265       9.53727377       4.10376702       14       23        0       -1        0       28 
Si       0.00000185       5.46135329       5.46174113       14       24        0       -1       -1       28 
Si       1.37114599       6.82718014       6.82759098       14       25        0       -1       -1       27 
Si       2.78354434       8.13880857       5.45875591       14       26        0       -1        0       27 
Si       4.09514221       9.55119800       6.82761831       14       27        0       -1       -1       27 
Si       2.78353381       5.45835452       8.13924524       14       28        0        0       -1       27 
Si       4.09510981       6.82723995       9.55162574       14       29        0       -1       -1       27 
Si      -0.00550898       8.18990465       8.19036623       14       30        0       -1       -1       28 
Si       1.36461637       9.55772969       9.55814606       14       31        0       -1       -1       28 
Si       5.46095757       0.00049017       0.00098054       14       32        0        0        0       28 
Si       6.81917537       1.38563852       1.38610516       14       33       -1        0        0       28 
Si       8.18958970       2.73280983       0.00639097       14       34       -1        0        0       28 
Si       9.53678082       4.10323753       1.38607310       14       35       -1        0        0       28 
Si       8.18960817       0.00593012       2.73326607       14       36       -1        0        0       28 
Si       9.53680983       1.38557740       4.10372231       14       37       -1        0        0       28 
Si       5.46402193       2.78402781       2.78443621       14       38       -1        0        0       27 
Si       6.68625467       4.23613080       4.23655470       14       39       -1        0        0       27 
Si       5.46096725       0.00038121       5.46174112       14       40       -1        0       -1       28 
Si       6.82676096       1.37156194       6.82758818       14       41       -1        0       -1       27 
Si       8.13836130       2.78398570       5.45874787       14       42       -1        0        0       27 
Si       9.55076600       4.09557208       6.82761111       14       43       -1        0       -1       27 
Si       8.18946179      -0.00508410       8.19039212       14       44       -1        0       -1       28 
Si       9.55733513       1.36500697       9.55816148       14       45       -1        0       -1       28 
Si       5.45792708       2.78397854       8.13921387       14       46        0        0       -1       27 
Si       6.82684600       4.09551023       9.55160431       14       47       -1        0       -1       27 
Si       5.46096724       5.46135329       0.00076278       14       48       -1       -1        0       28 
Si       6.82676329       6.82717964       1.37196288       14       49       -1       -1        0       27 
Si       8.18948899       8.18995781      -0.00467474       14       50       -1       -1        0       28 
Si       9.55735140       9.55776146       1.36539541       14       51       -1       -1        0       28 
Si       8.13834493       5.45833875       2.78441054       14       52       -1        0        0       27 
Si       9.55074463       6.82722186       4.09598029       14       53       -1       -1        0       27 
Si       5.45791945       8.13876080       2.78441395       14       54        0       -1        0       27 
Si       6.82683518       9.55115518       4.09595092       14       55       -1       -1        0       27 
Si       6.68611453       6.68660461       6.68712280       14       57       -1       -1       -1       27 
Si       8.13830413       8.13872313       5.46491133       14       58       -1       -1       -1       27 
Si       9.53669656       9.53714192       6.82003294       14       59       -1       -1       -1       28 
Si       8.13835567       5.46444523       8.13920081       14       60       -1       -1       -1       27 
Si       9.53674758       6.81954526       9.53762726       14       61       -1       -1       -1       28 
Si       5.46399869       8.13881787       8.13924392       14       62       -1       -1       -1       27 
Si       6.81905361       9.53724152       9.53767579       14       63       -1       -1       -1       28 
63
Lattice="10.921931286266252 4.367590391441383e-15 4.317390850080648e-15 4.367590391441383e-15 10.921931286266252 4.342975105211956e-15 4.317390850080648e-15 4.342975105211956e-15 10.921931286266252" Properties=species:S:1:pos:R:3:Z:I:1:ind:I:1 energy=-10276.5647111 pbc="T T T"
Si      -0.00018722       0.00011565       0.00041954       14        0 
Si       1.36438556       1.36470781       1.36502876       14        1 
Si       2.73187509       2.73225644      -0.00448019       14        2 
Si       4.09514328       4.09548161       1.37153181       14        3 
Si       2.73184206      -0.00480048       2.73260580       14        4 
Si       4.09512741       1.37122626       4.09581083       14        5 
Si      -0.00513484       2.73218483       2.73256727       14        6 
Si       1.37090843       4.09544442       4.09578961       14        7 
Si      -0.00226990      -0.00187377       5.46225674       14        8 
Si       1.38297906       1.38334707       6.82032531       14        9 
Si       2.78007663       2.78040810       5.46489504       14       10 
Si       4.22683728       4.22720332       6.70040245       14       11 
Si       2.73396987       0.00304863       8.18945223       14       12 
Si       4.10204516       1.38271865       9.53900743       14       13 
Si       0.00269783       2.73433722       8.18947245       14       14 
Si       1.38232147       4.10244654       9.53904308       14       15 
Si      -0.00226376       5.46183334      -0.00147612       14       16 
Si       1.38294774       6.81996714       1.38369306       14       17 
Si       2.73392559       8.18912034       0.00340961       14       18 
Si       4.10200811       9.53864885       1.38309949       14       19 
Si       2.78005073       5.46452588       2.78071019       14       20 
Si       4.22678932       6.70002992       4.22748981       14       21 
Si       0.00269182       8.18915678       2.73466620       14       22 
Si       1.38230776       9.53870911       4.10280594       14       23 
Si      -0.00083453       5.46097011       5.46127730       14       24 
Si       1.37031197       6.82679688       6.82712483       14       25 
Si       2.77858076       8.14382447       5.45856773       14       26 
Si       4.10025106       9.54614187       6.82743403       14       27 
Si       2.77857272       5.45824613       8.14417159       14       28 
Si       4.10021734       6.82712879       9.54649068       14       29 
Si      -0.00582233       8.18981668       8.19018440       14       30 
Si       1.36494904       9.55713324       9.55746130       14       31 
Si       5.46140163      -0.00186161      -0.00147010       14       32 
Si       6.81960953       1.38328881       1.38366609       14       33 
Si       8.18880236       2.73424883       0.00340299       14       34 
Si       9.53831342       4.10236858       1.38307664       14       35 
Si       8.18881853       0.00303607       2.73462213       14       36 
Si       9.53833798       1.38268213       4.10276511       14       37 
Si       5.46417475       2.78036544       2.78069335       14       38 
Si       6.69968853       4.22710121       4.22743567       14       39 
Si       5.46066266      -0.00052954       5.46127486       14       40 
Si       6.82646132       1.37064469       6.82712224       14       41 
Si       8.14347093       2.77892741       5.45855900       14       42 
Si       9.54579265       4.10059261       6.82742790       14       43 
Si       8.18946612      -0.00547455       8.19020816       14       44 
Si       9.55682502       1.36526572       9.55747562       14       45 
Si       5.45789994       2.77892392       8.14414675       14       46 
Si       6.82681099       4.10052867       9.54647343       14       47 
Si       5.46065999       5.46096501      -0.00022162       14       48 
Si       6.82646336       6.82679630       1.37096381       14       49 
Si       8.18949141       8.18986578      -0.00513994       14       50 
Si       9.55684025       9.55716286       1.36558134       14       51 
Si       8.14345975       5.45822865       2.77925975       14       52 
Si       9.54577661       6.82711314       4.10090958       14       53 
Si       5.45789128       8.14378842       2.77926433       14       54 
Si       6.82680151       9.54610858       4.10087942       14       55 
Si       6.57737519       6.57775487       6.57815820       14       57 
Si       8.12933773       8.12968328       5.47812623       14       58 
Si       9.53309959       9.53345967       6.81998185       14       59 
Si       8.12939055       5.47776398       8.13009033       14       60 
Si       9.53315475       6.81959680       9.53386543       14       61 
Si       5.47741713       8.12978209       8.13013625       14       62 
Si       6.81920733       9.53356753       9.53391809       14       63 
63
Lattice="10.921931286266252 4.367590391441383e-15 4.317390850080648e-15 4.367590391441383e-15 10.921931286266252 4.342975105211956e-15 4.317390850080648e-15 4.342975105211956e-15 10.921931286266252" Properties=species:S:1:pos:R:3:Z:I:1:ind:I:1 energy=-10276.5647111 pbc="T T T"
Si      -0.00037532      -0.00015191       0.00007260       14        0 
Si       1.36420380       1.36444201       1.36467910       14        1 
Si       2.73137286       2.73166235      -0.00429428       14        2 
Si       4.09513794       4.09539203       1.37107911       14        3 
Si       2.73134327      -0.00453356       2.73192287       14        4 
Si       4.09512542       1.37084755       4.09563997       14        5 
Si      -0.00478519       2.73159816       2.73188830       14        6 
Si       1.37060636       4.09536199       4.09562254       14        7 
Si      -0.00453500      -0.00423771       5.46251153       14        8 
Si       1.38071075       1.38099064       6.82058132       14        9 
Si       2.77649896       2.77674875       5.46487152       14       10 
Si       4.21790569       4.21817908       6.71363869       14       11 
Si       2.73548928       0.00015107       8.18849825       14       12 
Si       4.10125818       1.37982424       9.54036090       14       13 
Si      -0.00010839       2.73577393       8.18851571       14       14 
Si       1.37952737       4.10157038       9.54039100       14       15 
Si      -0.00452273       5.46218242      -0.00393278       14       16 
Si       1.38068303       6.82031222       1.38125086       14       17 
Si       2.73544593       8.18825079       0.00042025       14       18 
Si       4.10122447       9.54009420       1.38010310       14       19 
Si       2.77647181       5.46459159       2.77696908       14       20 
Si       4.21785439       6.71336721       4.21837279       14       21 
Si      -0.00011227       8.18828215       2.73602090       14       22 
Si       1.37951287       9.54014445       4.10184487       14       23 
Si      -0.00167090       5.46058694       5.46081348       14       24 
Si       1.36947796       6.82641361       6.82665868       14       25 
Si       2.77361717       8.14884037       5.45837955       14       26 
Si       4.10535991       9.54108574       6.82724975       14       27 
Si       2.77361164       5.45813774       8.14909793       14       28 
Si       4.10532487       6.82701764       9.54135562       14       29 
Si      -0.00613568       8.18972871       8.19000258       14       30 
Si       1.36528171       9.55653678       9.55677654       14       31 
Si       5.46184569      -0.00421340      -0.00392073       14       32 
Si       6.82004369       1.38093911       1.38122702       14       33 
Si       8.18801503       2.73568782       0.00041501       14       34 
Si       9.53984602       4.10149963       1.38008019       14       35 
Si       8.18802889       0.00014202       2.73597818       14       36 
Si       9.53986613       1.37978686       4.10180791       14       37 
Si       5.46432757       2.77670307       2.77695050       14       38 
Si       6.71312239       4.21807163       4.21831664       14       39 
Si       5.46035806      -0.00144030       5.46080859       14       40 
Si       6.82616168       1.36972744       6.82665631       14       41 
Si       8.14858057       2.77386911       5.45837013       14       42 
Si       9.54081930       4.10561315       6.82724470       14       43 
Si       8.18947045      -0.00586501       8.19002420       14       44 
Si       9.55631491       1.36552447       9.55678975       14       45 
Si       5.45787279       2.77386931       8.14907963       14       46 
Si       6.82677598       4.10554711       9.54134256       14       47 
Si       5.46035274       5.46057673      -0.00120602       14       48 
Si       6.82616343       6.82641296       1.36996473       14       49 
Si       8.18949384       8.18977376      -0.00560514       14       50 
Si       9.55632910       9.55656425       1.36576727       14       51 
Si       8.14857456       5.45811856       2.77410895       14       52 
Si       9.54080860       6.82700442       4.10583887       14       53 
Si       5.45786310       8.14881604       2.77411471       14       54 
Si       6.82676785       9.54106197       4.10580792       14       55 
Si       6.46863586       6.46890514       6.46919359       14       57 
Si       8.12037133       8.12064343       5.49134112       14       58 
Si       9.52950261       9.52977742       6.81993076       14       59 
Si       8.12042544       5.49108273       8.12097985       14       60 
Si       9.52956193       6.81964833       9.53010361       14       61 
Si       5.49083557       8.12074631       8.12102857       14       62 
Si       6.81936104       9.52989355       9.53016039       14       63 
63
Lattice="10.921931286266252 4.367590391441383e-15 4.317390850080648e-15 4.367590391441383e-15 10.921931286266252 4.342975105211956e-15 4.317390850080648e-15 4.342975105211956e-15 10.921931286266252" Properties=species:S:1:pos:R:3:Z:I:1:ind:I:1 energy=-10276.5647111 pbc="T T T"
Si      -0.00056343      -0.00041946      -0.00027434       14        0 
Si       1.36402203       1.36417620       1.36432944       14        1 
Si       2.73087063       2.73106827      -0.00410836       14        2 
Si       4.09513260       4.09530245       1.37062640       14        3 
Si       2.73084448      -0.00426665       2.73123993       14        4 
Si       4.09512343       1.37046883       4.09546911       14        5 
Si      -0.00443554       2.73101150       2.73120932       14        6 
Si       1.37030428       4.09527956       4.09545546       14        7 
Si      -0.00680011      -0.00660165       5.46276633       14        8 
Si       1.37844244       1.37863421       6.82083733       14        9 
Si       2.77292128       2.77308940       5.46484801       14       10 
Si       4.20897409       4.20915484       6.72687494       14       11 
Si       2.73700869      -0.00274648       8.18754427       14       12 
Si       4.10047121       1.37692984       9.54171437       14       13 
Si      -0.00291461       2.73721063       8.18755896       14       14 
Si       1.37673327       4.10069421       9.54173892       14       15 
Si      -0.00678170       5.46253149      -0.00638945       14       16 
Si       1.37841832       6.82065730       1.37880865       14       17 
Si       2.73696627       8.18738124      -0.00256912       14       18 
Si       4.10044082       9.54153955       1.37710672       14       19 
Si       2.77289289       5.46465731       2.77322798       14       20 
Si       4.20891945       6.72670451       4.20925576       14       21 
Si      -0.00291637       8.18740752       2.73737561       14       22 
Si       1.37671798       9.54157980       4.10088380       14       23 
Si      -0.00250727       5.46020376       5.46034965       14       24 
Si       1.36864394       6.82603034       6.82619253       14       25 
Si       2.76865359       8.15385627       5.45819137       14       26 
Si       4.11046876       9.53602961       6.82706547       14       27 
Si       2.76865055       5.45802935       8.15402428       14       28 
Si       4.11043240       6.82690649       9.53622056       14       29 
Si      -0.00644903       8.18964074       8.18982076       14       30 
Si       1.36561439       9.55594032       9.55609177       14       31 
Si       5.46228975      -0.00656518      -0.00637137       14       32 
Si       6.82047785       1.37858940       1.37878795       14       33 
Si       8.18722769       2.73712681      -0.00257297       14       34 
Si       9.54137861       4.10063068       1.37708374       14       35 
Si       8.18723925      -0.00275203       2.73733424       14       36 
Si       9.54139428       1.37689160       4.10085071       14       37 
Si       5.46448039       2.77304071       2.77320764       14       38 
Si       6.72655625       4.20904204       4.20919761       14       39 
Si       5.46005347      -0.00235105       5.46034232       14       40 
Si       6.82586205       1.36881018       6.82619037       14       41 
Si       8.15369020       2.76881082       5.45818126       14       42 
Si       9.53584595       4.11063369       6.82706150       14       43 
Si       8.18947478      -0.00625546       8.18984024       14       44 
Si       9.55580480       1.36578322       9.55610389       14       45 
Si       5.45784565       2.76881469       8.15401251       14       46 
Si       6.82674097       4.11056554       9.53621168       14       47 
Si       5.46004549       5.46018846      -0.00219042       14       48 
Si       6.82586350       6.82602962       1.36896566       14       49 
Si       8.18949626       8.18968173      -0.00607034       14       50 
Si       9.55581794       9.55596564       1.36595320       14       51 
Si       8.15368938       5.45800846       2.76895816       14       52 
Si       9.53584058       6.82689570       4.11076816       14       53 
Si       5.45783493       8.15384366       2.76896509       14       54 
Si       6.82673419       9.53601537       4.11073642       14       55 
Si       6.35989653       6.36005540       6.36022898       14       57 
Si       8.11140493       8.11160358       5.50455601       14       58 
Si       9.52590564       9.52609517       6.81987967       14       59 
Si       8.11146032       5.50440148       8.11186938       14       60 
Si       9.52596910       6.81969987       9.52634178       14       61 
Si       5.50425402       8.11171053       8.11192090       14       62 
Si       6.81951475       9.52621956       9.52640269       14       63 
63
Lattice="10.921931286266252 4.367590391441383e-15 4.317390850080648e-15 4.367590391441383e-15 10.921931286266252 4.342975105211956e-15 4.317390850080648e-15 4.342975105211956e-15 10.921931286266252" Properties=species:S:1:pos:R:3:Z:I:1:ind:I:1 energy=-10276.5647111 pbc="T T T"
Si      -0.00075153      -0.00068702      -0.00062127       14        0 
Si       1.36384027       1.36391040       1.36397979       14        1 
Si       2.73036840       2.73047419      -0.00392244       14        2 
Si       4.09512727       4.09521288       1.37017370       14        3 
Si       2.73034569      -0.00399973       2.73055699       14        4 
Si       4.09512144       1.37009012       4.09529825       14        5 
Si      -0.00408589       2.73042483       2.73053035       14        6 
Si       1.37000221       4.09519714       4.09528839       14        7 
Si      -0.00906521      -0.00896559       5.46302113       14        8 
Si       1.37617414       1.37627778       6.82109334       14        9 
Si       2.76934361       2.76943005       5.46482449       14       10 
Si       4.20004250       4.20013061       6.74011119       14       11 
Si       2.73852811      -0.00564404       8.18659030       14       12 
Si       4.09968424       1.37403544       9.54306784       14       13 
Si      -0.00572084       2.73864733       8.18660222       14       14 
Si       1.37393917       4.09981805       9.54308684       14       15 
Si      -0.00904067       5.46288057      -0.00884611       14       16 
Si       1.37615361       6.82100238       1.37636645       14       17 
Si       2.73848661       8.18651169      -0.00555848       14       18 
Si       4.09965717       9.54298490       1.37411033       14       19 
Si       2.76931397       5.46472303       2.76948687       14       20 
Si       4.19998452       6.74004180       4.20013874       14       21 
Si      -0.00572046       8.18653288       2.73873031       14       22 
Si       1.37392309       9.54301514       4.09992273       14       23 
Si      -0.00334364       5.45982058       5.45988583       14       24 
Si       1.36780993       6.82564707       6.82572637       14       25 
Si       2.76369001       8.15887217       5.45800319       14       26 
Si       4.11557761       9.53097347       6.82688119       14       27 
Si       2.76368946       5.45792096       8.15895063       14       28 
Si       4.11553992       6.82679534       9.53108549       14       29 
Si      -0.00676238       8.18955277       8.18963894       14       30 
Si       1.36594706       9.55534387       9.55540701       14       31 
Si       5.46273381      -0.00891697      -0.00882200       14       32 
Si       6.82091201       1.37623970       1.37634888       14       33 
Si       8.18644036       2.73856580      -0.00556095       14       34 
Si       9.54291121       4.09976173       1.37408728       14       35 
Si       8.18644960      -0.00564609       2.73869029       14       36 
Si       9.54292243       1.37399633       4.09989351       14       37 
Si       5.46463321       2.76937834       2.76946478       14       38 
Si       6.73999011       4.20001246       4.20007859       14       39 
Si       5.45974887      -0.00326181       5.45987605       14       40 
Si       6.82556241       1.36789293       6.82572443       14       41 
Si       8.15879983       2.76375252       5.45799239       14       42 
Si       9.53087260       4.11565422       6.82687830       14       43 
Si       8.18947911      -0.00664592       8.18965628       14       44 
Si       9.55529469       1.36604197       9.55541803       14       45 
Si       5.45781850       2.76376007       8.15894539       14       46 
Si       6.82670596       4.11558398       9.53108081       14       47 
Si       5.45973824       5.45980018      -0.00317482       14       48 
Si       6.82556357       6.82564628       1.36796659       14       49 
Si       8.18949869       8.18958971      -0.00653554       14       50 
Si       9.55530679       9.55536703       1.36613913       14       51 
Si       8.15880419       5.45789836       2.76380737       14       52 
Si       9.53087256       6.82678698       4.11569744       14       53 
Si       5.45780676       8.15887128       2.76381547       14       54 
Si       6.82670053       9.53096876       4.11566492       14       55 
Si       6.25115720       6.25120567       6.25126438       14       57 
Si       8.10243852       8.10256373       5.51777090       14       58 
Si       9.52230866       9.52241292       6.81982858       14       59 
Si       8.10249520       5.51772023       8.10275890       14       60 
Si       9.52237628       6.81975141       9.52257996       14       61 
Si       5.51767246       8.10267475       8.10281322       14       62 
Si       6.81966847       9.52254558       9.52264500       14       63 
63
Lattice="10.921931286266252 4.367590391441383e-15 4.317390850080648e-15 4.367590391441383e-15 10.921931286266252 4.342975105211956e-15 4.317390850080648e-15 4.342975105211956e-15 10.921931286266252" Properties=species:S:1:pos:R:3:Z:I:1:ind:I:1 energy=-10276.5647111 pbc="T T T"
Si      -0.00093963      -0.00095458      -0.00096821       14        0 
Si       1.36365850       1.36364460       1.36363013       14        1 
Si       2.72986617       2.72988010      -0.00373652       14        2 
Si       4.09512193       4.09512330       1.36972099       14        3 
Si       2.72984690      -0.00373282       2.72987405       14        4 
Si       4.09511945       1.36971140       4.09512739       14        5 
Si      -0.00373625       2.72983816       2.72985138       14        6 
Si       1.36970013       4.09511471       4.09512131       14        7 
Si      -0.01133031      -0.01132953       5.46327592       14        8 
Si       1.37390583       1.37392135       6.82134936       14        9 
Si       2.76576593       2.76577070       5.46480098       14       10 
Si       4.19111090       4.19110637       6.75334743       14       11 
Si       2.74004752      -0.00854160       8.18563632       14       12 
Si       4.09889726       1.37114104       9.54442131       14       13 
Si      -0.00852706       2.74008403       8.18564548       14       14 
Si       1.37114508       4.09894188       9.54443476       14       15 
Si      -0.01129964       5.46322964      -0.01130277       14       16 
Si       1.37388890       6.82134746       1.37392425       14       17 
Si       2.74000695       8.18564214      -0.00854784       14       18 
Si       4.09887353       9.54443025       1.37111395       14       19 
Si       2.76573505       5.46478875       2.76574577       14       20 
Si       4.19104958       6.75337910       4.19102172       14       21 
Si      -0.00852455       8.18565825       2.74008501       14       22 
Si       1.37112821       9.54445048       4.09896165       14       23 
Si      -0.00418002       5.45943741       5.45942200       14       24 
Si       1.36697591       6.82526381       6.82526022       14       25 
Si       2.75872643       8.16388807       5.45781501       14       26 
Si       4.12068646       9.52591734       6.82669691       14       27 
Si       2.75872837       5.45781257       8.16387698       14       28 
Si       4.12064745       6.82668418       9.52595043       14       29 
Si      -0.00707573       8.18946480       8.18945712       14       30 
Si       1.36627973       9.55474741       9.55472225       14       31 
Si       5.46317787      -0.01126875      -0.01127264       14       32 
Si       6.82134617       1.37389000       1.37390981       14       33 
Si       8.18565302       2.74000480      -0.00854894       14       34 
Si       9.54444381       4.09889277       1.37109083       14       35 
Si       8.18565996      -0.00854014       2.74004635       14       36 
Si       9.54445058       1.37110107       4.09893631       14       37 
Si       5.46478603       2.76571597       2.76572192       14       38 
Si       6.75342397       4.19098288       4.19095956       14       39 
Si       5.45944428      -0.00417256       5.45940978       14       40 