2
Lattice="2.7380977424348205 0.0 0.0 -1.3690488712174096 2.3712622029933756 0.0 0.0 0.0 4.928575936382677" Properties=species:S:1:pos:R:3:Z:I:1:forces:R:3 energy=-324.892461357 stress="0.060144219498552164 -3.258460496812551e-17 9.742687749842314e-33 -3.258460496812551e-17 0.060144219498552136 -5.624943395001931e-33 9.742687749842314e-33 -5.624943395001931e-33 0.039274377653773" pbc="T T T"
Si       0.00000000       0.00000000       0.00000000       14      -0.00000000       0.00000000       0.00000000 
Si       0.00000000       1.58084147       2.46428797       14       0.00000000      -0.00000000       0.00000000 
2
Lattice="2.653357024384489 4.5910360886000676e-17 -1.372704413732869e-32 -1.3266785121922438 2.2978745884268537 1.372704413732869e-32 -2.4708679447191643e-32 1.426556273015627e-32 4.8289711832743025" Properties=species:S:1:pos:R:3:Z:I:1:forces:R:3 energy=-325.022366601 stress="0.04632775869693308 -2.2260592195692618e-17 -5.085695386223357e-33 -2.2260592195692618e-17 0.04632775869693306 7.290191024672614e-33 -5.085695386223357e-33 7.290191024672614e-33 0.05048593687236175" pbc="T T T"
Si      -0.00000000       0.00000000       0.00000000       14       0.00000000      -0.00000000      -0.00000000 
Si       0.00000000       1.53191639       2.41448559       14      -0.00000000       0.00000000       0.00000000 
2
Lattice="2.592771847734032 6.53912928092357e-17 5.723407891035267e-32 -1.2963859238670155 2.2454062863547906 -8.193209145348196e-32 1.026149829014159e-31 -1.1001599198119893e-31 4.525724285712566" Properties=species:S:1:pos:R:3:Z:I:1:forces:R:3 energy=-325.138420149 stress="0.01750588268784211 -2.4288229193124278e-18 2.3981797764744562e-33 -2.4288229193124278e-18 0.01750588268784209 -1.4411573212830021e-30 2.3981797764744562e-33 -1.4411573212830021e-30 -0.00684761635747577" pbc="T T T"
Si      -0.00000000       0.00000000      -0.00000000       14       0.00000000       0.00000000       0.00000000 
Si       0.00000000       1.49693752       2.26286214       14       0.00000000       0.00000000       0.00000000 
2
Lattice="2.5449021826899996 -7.463178339594831e-17 2.478746419139441e-31 -1.2724510913449993 2.2039499403560066 2.4956991092105825e-29 4.6228076538378364e-31 5.375282795100506e-29 4.59106666218112" Properties=species:S:1:pos:R:3:Z:I:1:forces:R:3 energy=-325.146830987 stress="-0.012284337620817543 -3.108626650014126e-18 -7.238781107964284e-31 -3.108626650014126e-18 -0.01228433762081754 -1.7806066509548765e-30 -7.238781107964284e-31 -1.7806066509548765e-30 -0.015208237457262153" pbc="T T T"
Si       0.00000000      -0.00000000      -0.00000000       14      -0.00000000       0.00000000       0.00000000 
Si       0.00000000       1.46929996       2.29553333       14       0.00000000      -0.00000000      -0.00000000 
2
Lattice="2.547901481717639 -5.019281549339714e-18 6.334898414479967e-30 -1.273950740858819 2.2065474095074884 3.496947721336895e-29 1.140041171700834e-29 8.15038970555098e-29 4.632681106136151" Properties=species:S:1:pos:R:3:Z:I:1:forces:R:3 energy=-325.148929051 stress="-0.0016301118770118543 1.3860041293433326e-19 6.014628438350802e-32 1.3860041293433326e-19 -0.001630111877011853 3.1729606350104113e-32 6.014628438350802e-32 3.1729606350104113e-32 0.00046054413184261155" pbc="T T T"
Si       0.00000000      -0.00000000      -0.00000000       14       0.00000000      -0.00000000      -0.00000000 
Si       0.00000000       1.47103161       2.31634055       14      -0.00000000       0.00000000       0.00000000 
