2
Lattice="2.547901481717639 -5.019281549339714e-18 6.334898414479967e-30 -1.273950740858819 2.2065474095074884 3.496947721336895e-29 1.140041171700834e-29 8.15038970555098e-29 4.632681106136151" Properties=species:S:1:pos:R:3:Z:I:1:forces:R:3 stress="-0.001630111874479895 -4.52413473655024e-19 -2.9629181885993193e-31 -4.52413473655024e-19 -0.0016301118744798937 7.005459194895568e-31 -2.9629181885993193e-31 7.005459194895568e-31 0.0004605441310247239" energy=-325.148929051 Minim_Constant_Volume=T Minim_Hydrostatic_Strain=F pbc="T T T"
Si       0.00000000      -0.00000000      -0.00000000       14      -0.00000000       0.00000000       0.00000000 
Si       0.00000000       1.47103161       2.31634055       14       0.00000000      -0.00000000      -0.00000000 
2
Lattice="2.5349718016545033 -5.4688218432480935e-17 1.2326170744156791e-27 -1.2674859008272514 2.195349978110008 1.260991845239352e-27 2.2411839954223664e-27 3.9436489929113925e-27 4.562903672082014" Properties=species:S:1:pos:R:3:Z:I:1:forces:R:3 stress="-0.031575275811406685 1.263998632160829e-18 4.757658618315071e-28 1.263998632160829e-18 -0.03157527581140666 2.358962385704738e-27 4.757658618315071e-28 2.358962385704738e-27 -0.033591054884657336" energy=-325.138715585 Minim_Constant_Volume=T Minim_Hydrostatic_Strain=F pbc="T T T"
Si       0.00000000      -0.00000000       0.00000000       14       0.00000000       0.00000000       0.00000000 
Si       0.00000000       1.46356665       2.28145184       14      -0.00000000      -0.00000000      -0.00000000 
2
Lattice="2.5248432673278765 -1.2007446931850583e-16 8.031999896637196e-26 -1.262421633663938 2.1865784100800467 -1.0390525870522373e-27 1.4462767350744861e-25 8.140618868551643e-26 4.481507340233592" Properties=species:S:1:pos:R:3:Z:I:1:forces:R:3 stress="-0.07221867524270142 -8.174142698266347e-18 3.336640138797132e-26 -8.174142698266347e-18 -0.07221867524270136 8.552847770819904e-26 3.336640138797132e-26 8.552847770819904e-26 -0.0727042839000889" energy=-325.104297081 Minim_Constant_Volume=T Minim_Hydrostatic_Strain=F pbc="T T T"
Si       0.00000000      -0.00000000       0.00000000       14       0.00000000       0.00000000       0.00000000 
Si       0.00000000       1.45771894       2.24075367       14      -0.00000000      -0.00000000      -0.00000000 
2
Lattice="2.519882322133068 -3.348313602827414e-17 6.853176027329845e-26 -1.2599411610665339 2.18228210551456 -3.029862925245574e-25 1.2663545788364053e-25 -5.478822741171325e-25 4.380423627388006" Properties=species:S:1:pos:R:3:Z:I:1:forces:R:3 stress="-0.12041301585940506 8.919997003195584e-17 1.0391216322687225e-25 8.919997003195584e-17 -0.12041301585940503 2.7943888261736794e-25 1.0391216322687225e-25 2.7943888261736794e-25 -0.12032836427968788" energy=-325.042516881 Minim_Constant_Volume=T Minim_Hydrostatic_Strain=F pbc="T T T"
Si       0.00000000      -0.00000000       0.00000000       14       0.00000000      -0.00000000      -0.00000000 
Si       0.00000000       1.45485474       2.19021181       14      -0.00000000       0.00000000       0.00000000 
2
Lattice="2.5058474449461428 -8.795737488177803e-17 -5.0280246738839016e-27 -1.2529237224730712 2.1701275453316877 -4.8013921182001755e-25 -3.6986462736702227e-29 -9.828769321169131e-25 4.310373188319178" Properties=species:S:1:pos:R:3:Z:I:1:forces:R:3 stress="-0.19778388062428837 -1.017562110973138e-16 2.0094428077958857e-25 -1.017562110973138e-16 -0.19778388062428826 2.564174279843974e-25 2.0094428077958857e-25 2.564174279843974e-25 -0.19735495840258202" energy=-324.941433393 Minim_Constant_Volume=T Minim_Hydrostatic_Strain=F pbc="T T T"
Si       0.00000000      -0.00000000       0.00000000       14      -0.00000000       0.00000000      -0.00000000 
Si       0.00000000       1.44675170       2.15518659       14       0.00000000      -0.00000000       0.00000000 
2
Lattice="2.4846457167605234 -1.4337773017200376e-16 -1.5292090956024448e-25 -1.2423228583802615 2.1517663101188087 -6.739028359467488e-25 -2.5452689532217006e-25 -1.5169173076798197e-24 4.262611628830106" Properties=species:S:1:pos:R:3:Z:I:1:forces:R:3 stress="-0.3240347170706466 -2.0338487454084532e-17 1.044905657777936e-25 -2.0338487454084532e-17 -0.32403471707064674 7.878737814047724e-25 1.044905657777936e-25 7.878737814047724e-25 -0.32465756363273174" energy=-324.775017629 Minim_Constant_Volume=T Minim_Hydrostatic_Strain=F pbc="T T T"
Si       0.00000000      -0.00000000       0.00000000       14      -0.00000000       0.00000000      -0.00000000 
Si       0.00000000       1.43451087       2.13130581       14       0.00000000      -0.00000000       0.00000000 
2
Lattice="2.5722459024806246 4.706638323176486e-17 1.1771182214401321e-26 -1.2861229512403118 2.227630296328651 2.3566482431861964e-26 2.140268926661451e-26 6.183685151689835e-26 4.659018470097754" Properties=species:S:1:pos:R:3:Z:I:1:forces:R:3 stress="0.02273466057778042 -5.237091058428073e-19 -2.1082067333960247e-27 -5.237091058428073e-19 0.02273466057778041 -1.9352793008339333e-27 -2.1082067333960247e-27 -1.9352793008339333e-27 0.02202143416436883" energy=-325.141749687 Minim_Constant_Volume=T Minim_Hydrostatic_Strain=F pbc="T T T"
Si       0.00000000      -0.00000000      -0.00000000       14      -0.00000000       0.00000000       0.00000000 
Si       0.00000000       1.48508686       2.32950924       14       0.00000000      -0.00000000      -0.00000000 
2
Lattice="2.5929949641537737 4.744604494585921e-17 1.186613463924412e-26 -1.2964974820768864 2.245599510842288 2.3756581829795234e-26 2.157533439324722e-26 6.233565944368332e-26 4.696600515219946" Properties=species:S:1:pos:R:3:Z:I:1:forces:R:3 stress="0.03806090555616962 1.3161297504871135e-18 1.0119173088896495e-26 1.3161297504871135e-18 0.03806090555616959 -6.229145711390577e-26 1.0119173088896495e-26 -6.229145711390577e-26 0.03995045735784689" energy=-325.121451695 Minim_Constant_Volume=T Minim_Hydrostatic_Strain=F pbc="T T T"
Si       0.00000000      -0.00000000      -0.00000000       14       0.00000000      -0.00000000       0.00000000 
Si       0.00000000       1.49706634       2.34830026       14       0.00000000       0.00000000      -0.00000000 
2
Lattice="2.6176023322289557 -1.1066360474322822e-17 1.71864784363845e-26 -1.3088011661144774 2.2669101167156698 -4.681489964015073e-27 3.131684085427879e-26 8.725241422637093e-27 4.718407483090883" Properties=species:S:1:pos:R:3:Z:I:1:forces:R:3 stress="0.04755104721415093 -2.5432098411874124e-17 -5.1035969787293215e-27 -2.5432098411874124e-17 0.0475510472141509 -1.631290249065196e-26 -5.1035969787293215e-27 -1.631290249065196e-26 0.04754016512821133" energy=-325.093045323 Minim_Constant_Volume=T Minim_Hydrostatic_Strain=F pbc="T T T"
Si       0.00000000      -0.00000000       0.00000000       14       0.00000000       0.00000000       0.00000000 
Si       0.00000000       1.51127341       2.35920374       14      -0.00000000      -0.00000000      -0.00000000 
2
Lattice="2.637745311145779 -1.1151518354485023e-17 1.731873186103046e-26 -1.3188726555728891 2.284354448165533 -4.717514975333036e-27 3.1557830273222385e-26 8.792383918598546e-27 4.754716582178501" Properties=species:S:1:pos:R:3:Z:I:1:forces:R:3 stress="0.049458391587684676 1.8143534114860666e-17 -4.5754149909155926e-27 1.8143534114860666e-17 0.049458391587684676 -1.7061043654478527e-26 -4.5754149909155926e-27 -1.7061043654478527e-26 0.04899161377963684" energy=-325.061221075 Minim_Constant_Volume=T Minim_Hydrostatic_Strain=F pbc="T T T"
Si       0.00000000      -0.00000000       0.00000000       14      -0.00000000       0.00000000      -0.00000000 
Si       0.00000000       1.52290297       2.37735829       14       0.00000000      -0.00000000       0.00000000 
2
Lattice="2.657578727368822 -1.123536750554174e-17 1.7448952779632298e-26 -1.3287893636844106 2.301530690458519 -4.752986344630467e-27 3.179511610224471e-26 8.85849455070298e-27 4.790467673308671" Properties=species:S:1:pos:R:3:Z:I:1:forces:R:3 stress="0.04915900770718292 -1.4356233736118539e-18 -5.1153208406031396e-27 -1.4356233736118539e-18 0.049159007707182935 -9.970441488526245e-27 -5.1153208406031396e-27 -9.970441488526245e-27 0.047550606162803266" energy=-325.029420878 Minim_Constant_Volume=T Minim_Hydrostatic_Strain=F pbc="T T T"
Si       0.00000000      -0.00000000       0.00000000       14      -0.00000000       0.00000000      -0.00000000 
Si       0.00000000       1.53435379       2.39523384       14       0.00000000      -0.00000000       0.00000000 
2
Lattice="2.6707898003112387 7.024065877071145e-17 3.4117978201562446e-26 -1.335394900155619 2.3129718152379013 2.769521842642798e-26 6.161910393300276e-26 9.368860523926158e-26 4.848515821860558" Properties=species:S:1:pos:R:3:Z:I:1:forces:R:3 stress="0.04908717940038101 1.9221789062446067e-17 -7.130750488540523e-27 1.9221789062446067e-17 0.04908717940038093 -1.9420167154779492e-26 -7.130750488540523e-27 -1.9420167154779492e-26 0.0479478242156984" energy=-324.997879952 Minim_Constant_Volume=T Minim_Hydrostatic_Strain=F pbc="T T T"
Si       0.00000000      -0.00000000       0.00000000       14       0.00000000      -0.00000000      -0.00000000 
Si       0.00000000       1.54198121       2.42425791       14       0.00000000      -0.00000000       0.00000000 
