2
Lattice="3.0174469035173477 9.467153231748203e-30 7.38544068665939e-29 9.467153231748217e-30 3.0174469035173463 -5.759721257032917e-17 7.385440686659391e-29 -5.759721257032917e-17 3.017446903517347" Properties=species:S:1:pos:R:3:Z:I:1:forces:R:3 stress="-0.0005177313078942968 1.8483315609322506e-30 3.2345802316314386e-30 1.8483315609322506e-30 -0.0005177313078942969 -1.4065508468912303e-19 3.2345802316314386e-30 -1.4065508468912303e-19 -0.0005177313078942969" energy=-325.099199867 Minim_Constant_Volume=T Minim_Hydrostatic_Strain=F pbc="T T T"
Si       0.00000000       0.00000000       0.00000000       14       0.00000000       0.00000000       0.00000000 
Si       1.50872345       1.50872345       1.50872345       14       0.00000000       0.00000000       0.00000000 
2
Lattice="2.9920890079719924 9.38759356079502e-30 7.323375225533821e-29 9.387593560795034e-30 2.992089007971991 -5.711317949642172e-17 7.323375225533822e-29 -5.711317949642172e-17 2.9920890079719915" Properties=species:S:1:pos:R:3:Z:I:1:forces:R:3 stress="-0.032695550455294 -2.8196901978019747e-30 -1.8046017265932113e-28 -2.8196901978019747e-30 -0.03269555045529402 -2.2735795184882856e-17 -1.8046017265932113e-28 -2.2735795184882856e-17 -0.03269555045529402" energy=-325.088524089 Minim_Constant_Volume=T Minim_Hydrostatic_Strain=F pbc="T T T"
Si       0.00000000       0.00000000       0.00000000       14       0.00000000       0.00000000      -0.00000000 
Si       1.49604450       1.49604450       1.49604450       14      -0.00000000      -0.00000000       0.00000000 
2
Lattice="2.9662938536248986 9.306662002875683e-30 7.260239538800902e-29 9.306662002875697e-30 2.9662938536248973 -5.662079999954236e-17 7.260239538800903e-29 -5.662079999954236e-17 2.9662938536248977" Properties=species:S:1:pos:R:3:Z:I:1:forces:R:3 stress="-0.0748256834841935 -4.896331059561045e-28 -1.0961756791058316e-28 -4.896331059561045e-28 -0.07482568348419355 -2.708604638208451e-17 -1.0961756791058316e-28 -2.708604638208451e-17 -0.07482568348419351" energy=-325.051638695 Minim_Constant_Volume=T Minim_Hydrostatic_Strain=F pbc="T T T"
Si       0.00000000       0.00000000       0.00000000       14       0.00000000       0.00000000       0.00000000 
Si       1.48314693       1.48314693       1.48314693       14       0.00000000       0.00000000       0.00000000 
2
Lattice="2.9400420887858765 9.224297842616512e-30 7.195986261663621e-29 9.224297842616526e-30 2.940042088785875 -5.611970469343543e-17 7.195986261663622e-29 -5.611970469343543e-17 2.9400420887858756" Properties=species:S:1:pos:R:3:Z:I:1:forces:R:3 stress="-0.12341760916758182 1.2699965959337946e-28 1.2460401358032994e-28 1.2699965959337946e-28 -0.12341760916758188 -5.835091138511088e-17 1.2460401358032994e-28 -5.835091138511088e-17 -0.12341760916758189" energy=-324.984162692 Minim_Constant_Volume=T Minim_Hydrostatic_Strain=F pbc="T T T"
Si       0.00000000       0.00000000       0.00000000       14       0.00000000       0.00000000       0.00000000 
Si       1.47002104       1.47002104       1.47002104       14       0.00000000       0.00000000       0.00000000 
2
Lattice="2.913312953957127 9.14043594768777e-30 7.130564583604154e-29 9.140435947687784e-30 2.9133129539571256 -5.560949731952674e-17 7.130564583604155e-29 -5.560949731952674e-17 2.913312953957126" Properties=species:S:1:pos:R:3:Z:I:1:forces:R:3 stress="-0.18154289068160312 3.7425863846952487e-29 3.172523557887365e-29 3.7425863846952487e-29 -0.18154289068160315 -1.7613866600973164e-16 3.172523557887365e-29 -1.7613866600973164e-16 -0.18154289068160315" energy=-324.880456297 Minim_Constant_Volume=T Minim_Hydrostatic_Strain=F pbc="T T T"
Si       0.00000000       0.00000000       0.00000000       14       0.00000000       0.00000000       0.00000000 
Si       1.45665648       1.45665648       1.45665648       14       0.00000000       0.00000000       0.00000000 
2
Lattice="2.8860841370491617 9.055006314547769e-30 7.063919894013336e-29 9.055006314547781e-30 2.8860841370491603 -5.5089751983276244e-17 7.063919894013337e-29 -5.5089751983276244e-17 2.886084137049161" Properties=species:S:1:pos:R:3:Z:I:1:forces:R:3 stress="-0.2631115714067005 -3.758189131486543e-45 -1.7678655395048323e-29 -3.758189131486543e-45 -0.26311157140670066 -5.59985568721215e-17 -1.7678655395048323e-29 -5.59985568721215e-17 -0.26311157140670066" energy=-324.729525619 Minim_Constant_Volume=T Minim_Hydrostatic_Strain=F pbc="T T T"
Si       0.00000000       0.00000000       0.00000000       14      -0.00000000       0.00000000       0.00000000 
Si       1.44304207       1.44304207       1.44304207       14      -0.00000000      -0.00000000      -0.00000000 
2
Lattice="3.042385612168856 9.545397715828615e-30 7.446480154605917e-29 9.545397715828629e-30 3.0423856121688546 -5.807324417895699e-17 7.446480154605918e-29 -5.807324417895699e-17 3.042385612168855" Properties=species:S:1:pos:R:3:Z:I:1:forces:R:3 stress="0.029676763335737103 -3.636307748548372e-29 -2.909046198838698e-29 -3.636307748548372e-29 0.029676763335737117 1.4915801223996611e-18 -2.909046198838698e-29 1.4915801223996611e-18 0.029676763335737127" energy=-325.088731887 Minim_Constant_Volume=T Minim_Hydrostatic_Strain=F pbc="T T T"
Si       0.00000000       0.00000000       0.00000000       14       0.00000000       0.00000000       0.00000000 
Si       1.52119281       1.52119281       1.52119281       14       0.00000000       0.00000000       0.00000000 
2
Lattice="3.066922039617293 9.62238005415684e-30 7.506535007392795e-29 9.622380054156855e-30 3.0669220396172916 -5.854159701917325e-17 7.506535007392796e-29 -5.854159701917325e-17 3.066922039617292" Properties=species:S:1:pos:R:3:Z:I:1:forces:R:3 stress="0.050056750102382426 -2.4265733919267068e-29 -2.1470142453913714e-29 -2.4265733919267068e-29 0.05005675010238243 3.314545128118225e-17 -2.1470142453913714e-29 3.314545128118225e-17 0.050056750102382405" energy=-325.06082641 Minim_Constant_Volume=T Minim_Hydrostatic_Strain=F pbc="T T T"
Si       0.00000000       0.00000000       0.00000000       14      -0.00000000      -0.00000000      -0.00000000 
Si       1.53346102       1.53346102       1.53346102       14       0.00000000      -0.00000000       0.00000000 
2
Lattice="3.091072026377839 9.698149945895539e-30 7.565644015937639e-29 9.698149945895553e-30 3.0910720263778377 -5.900257345570851e-17 7.56564401593764e-29 -5.900257345570851e-17 3.091072026377838" Properties=species:S:1:pos:R:3:Z:I:1:forces:R:3 stress="0.06229824887198423 -1.7684616943695022e-46 -6.604990098034775e-31 -1.7684616943695022e-46 0.06229824887198427 1.5023324567925534e-17 -6.604990098034775e-31 1.5023324567925534e-17 0.06229824887198429" energy=-325.021848265 Minim_Constant_Volume=T Minim_Hydrostatic_Strain=F pbc="T T T"
Si       0.00000000       0.00000000       0.00000000       14       0.00000000       0.00000000       0.00000000 
Si       1.54553601       1.54553601       1.54553601       14       0.00000000       0.00000000       0.00000000 
2
Lattice="3.1148504379463455 9.772754031112155e-30 7.623843564720907e-29 9.772754031112169e-30 3.114850437946344 -5.945645724206432e-17 7.623843564720908e-29 -5.945645724206432e-17 3.1148504379463446" Properties=species:S:1:pos:R:3:Z:I:1:forces:R:3 stress="0.06886419823403264 1.2195996629323217e-30 -3.4690834856741644e-30 1.2195996629323217e-30 0.06886419823403268 2.795427535748975e-18 -3.4690834856741644e-30 2.795427535748975e-18 0.06886419823403268" energy=-324.976537711 Minim_Constant_Volume=T Minim_Hydrostatic_Strain=F pbc="T T T"
Si       0.00000000       0.00000000       0.00000000       14      -0.00000000       0.00000000      -0.00000000 
Si       1.55742522       1.55742522       1.55742522       14      -0.00000000       0.00000000      -0.00000000 
2
Lattice="3.1382712454622474 9.846236143856495e-30 7.681167849214772e-29 9.84623614385651e-30 3.1382712454622457 -5.990351506021174e-17 7.681167849214773e-29 -5.990351506021174e-17 3.1382712454622466" Properties=species:S:1:pos:R:3:Z:I:1:forces:R:3 stress="0.07109100112807937 4.593116511013569e-27 8.748793354311562e-28 4.593116511013569e-27 0.07109100112807942 1.6062214587864317e-17 8.748793354311562e-28 1.6062214587864317e-17 0.07109100112807944" energy=-324.928283503 Minim_Constant_Volume=T Minim_Hydrostatic_Strain=F pbc="T T T"
Si       0.00000000       0.00000000       0.00000000       14       0.00000000       0.00000000       0.00000000 
Si       1.56913562       1.56913562       1.56913562       14       0.00000000       0.00000000       0.00000000 
2
Lattice="3.1613475980652606 9.918637539177791e-30 7.73764905298188e-29 9.918637539177805e-30 3.1613475980652592 -6.034399790174055e-17 7.737649052981881e-29 -6.034399790174055e-17 3.1613475980652597" Properties=species:S:1:pos:R:3:Z:I:1:forces:R:3 stress="0.0711320269958078 1.6838936236401387e-30 -3.3677872472802824e-30 1.6838936236401387e-30 0.07113202699580781 3.643407182247217e-17 -3.3677872472802824e-30 3.643407182247217e-17 0.07113202699580784" energy=-324.879341129 Minim_Constant_Volume=T Minim_Hydrostatic_Strain=F pbc="T T T"
Si       0.00000000       0.00000000       0.00000000       14       0.00000000       0.00000000       0.00000000 
Si       1.58067380       1.58067380       1.58067380       14       0.00000000       0.00000000       0.00000000 
