40
Lattice="0.0 3.1800609526947103 0.0 4.497285328473964 0.0 0.0 0.0 0.0 -54.97285328473965" Properties=species:S:1:pos:R:3:Z:I:1:forces:R:3 energy=-441.037513839 pbc="T T T"
W       0.05689402       0.00659642     -43.88404222       74       0.20955550       0.34918017       0.47292771 
W       2.34160848       1.65799968     -43.91842570       74      -0.34220287      -0.34480057       0.81259979 
W       2.26742760       0.06182635      -1.21122989       74       0.53748830      -0.04250450      -0.75088096 
W       0.09335822       1.65484460      -1.18146355       74      -0.50609001      -0.05562668      -0.91435088 
W       0.09315736       0.06699881      -3.47407288       74      -1.11753131      -0.34766652       1.20042376 
W       2.27422610       1.61252966      -3.48921526       74       0.75054203       0.50370821       1.48427242 
W       2.26704269       0.07249494      -5.64603493       74       0.37035970      -0.36264124      -1.32261438 
W       0.01431701       1.61210263      -5.71808270       74       0.31998564       0.63172078       0.14157384 
W       0.07470578       0.09804820      -7.91677115       74      -0.39920968      -0.51271368      -0.47419329 
W       2.31815695       1.68487597      -7.98678583       74      -0.16388284      -0.19118685       0.97868447 
W       2.26964919       0.06654789     -10.16327579       74       0.61526076      -0.35790044      -0.37486875 
W       0.06383419       1.59336038     -10.21469403       74      -0.41558498       0.83992924       0.67799484 
W       0.00851882       0.08752703     -12.39638386       74       0.95744424      -0.81693494      -0.75558864 
W       2.32148393       1.59255713     -12.41629492       74      -0.76633788       0.66458938      -0.25920530 
W       2.33782332       0.02652102     -14.64736196       74      -0.70677201       0.15426486      -0.64756598 
W       0.04075717       1.63154735     -14.72070656       74       0.42764614       0.00134764       0.71590832 
W       0.09856600       0.03132946     -16.97123872       74      -1.22970244       0.47577051       0.79926069 
W       2.24979216       1.67019507     -16.93875340       74       1.16550462      -0.38061009       0.06879031 
W       2.29545552       0.07794490     -19.20943440       74      -0.14631119       0.07819949       0.38441087 
W       0.01083644       1.67820548     -19.14371201       74       0.54082894      -0.28839860      -1.02688695 
W       0.06017961       0.06443373     -21.43648271       74       0.14802899       0.16484087       0.19630171 
W       2.32184696       1.68593241     -21.43329716       74      -0.36138288      -0.36606593       0.08099226 
W       2.32901398       0.04872826     -23.65886787       74      -0.37820064       0.04593757      -0.43850181 
W       0.05951767       1.63730717     -23.68637903       74       0.10863501       0.05098805       0.21521601 
W       0.04748054       0.04260348     -25.90472963       74      -0.34939635      -0.07105730      -0.30947744 
W       2.26034874       1.60338592     -25.94966136       74       0.55602423       0.40836869       0.59077898 
W       2.26153159       0.07027742     -28.17376129       74       0.38949482      -0.28999015       0.11579404 
W       0.02901462       1.64353956     -28.15149232       74      -0.23676246      -0.05579683      -0.35121476 
W       0.05810271       0.00866577     -30.43697742       74      -0.51365884       0.49363583       0.09691941 
W       2.26780554       1.66270072     -30.38447779       74       0.41264077      -0.36561710      -0.85871653 
W       2.30524375       0.06640882     -32.69334711       74      -0.31048326      -0.29803557       0.25734266 
W       0.02541726       1.60755556     -32.71890251       74       0.22730760       0.35219668       0.61051761 
W       0.06496788       0.04961882     -34.96851314       74      -0.66875699      -0.12668751       0.60140291 
W       2.25011825       1.64307163     -34.92787181       74       0.91190694      -0.08165978      -0.03449420 
W       2.31274339       0.03345370     -37.13638532       74      -0.32835821      -0.01428909      -0.71140642 
W       0.05033333       1.61608588     -37.18550642       74      -0.19340377       0.04114608       0.18668156 
W       0.01207351       0.00061213     -39.38505160       74       0.23478997       0.34704151      -0.42441941 
W       2.24866717       1.61243525     -39.42559709       74       0.41880700      -0.10852387       0.48866238 
W       2.31975713       0.00913472     -41.63804368       74      -0.63203989       0.33420072      -0.98500533 
W       0.03013855       1.64569962     -41.66094853       74       0.46381730      -0.45835906      -0.53806555 
40
Lattice="0.0 3.1800609526947103 0.0 4.497285328473964 0.0 0.0 0.0 0.0 -54.97285328473965" Properties=species:S:1:pos:R:3:Z:I:1:forces:R:3 energy=-441.468215184 pbc="T T T"
W       0.05988767       0.01158471     -43.87728611       74       0.14716727       0.28864850       0.36658362 
W       2.33671987       1.65307396     -43.90681713       74      -0.29449488      -0.29772695       0.67497965 
W       2.27510600       0.06121914      -1.22195676       74       0.45070545      -0.04305418      -0.57380781 
W       0.08612836       1.65404993      -1.19452570       74      -0.43312312      -0.04939655      -0.75339932 
W       0.07719262       0.06203214      -3.45692397       74      -0.70887332      -0.23356296       0.82691281 
W       2.28494813       1.61972549      -3.46801137       74       0.43645437       0.36957997       0.99380935 
W       2.27233354       0.06731435      -5.66492942       74       0.25703626      -0.23190029      -0.78032255 
W       0.01888823       1.62112721      -5.71606021       74       0.30734985       0.46272408       0.23777906 
W       0.06900278       0.09072372      -7.92354534       74      -0.29544772      -0.39180364      -0.36304840 
W       2.31581576       1.68214473      -7.97280462       74      -0.18589354      -0.21257798       0.67893402 
W       2.27843863       0.06143502     -10.16863106       74       0.41817189      -0.24009359      -0.28211620 
W       0.05789726       1.60535937     -10.20500839       74      -0.25665846       0.62483457       0.44445169 
W       0.02219659       0.07585653     -12.40717799       74       0.61178273      -0.59399667      -0.52977232 
W       2.31053625       1.60205126     -12.41999785       74      -0.45336233       0.49684926      -0.19814700 
W       2.32772657       0.02872480     -14.65661290       74      -0.49827566       0.14562158      -0.47620178 
W       0.04686640       1.63156660     -14.71047930       74       0.26385423       0.00979279       0.52930796 
W       0.08099883       0.03812618     -16.95982071       74      -0.78799958       0.34193177       0.52220738 
W       2.26644223       1.66475779     -16.93777068       74       0.74407459      -0.28322275       0.04876312 
W       2.29336536       0.07906203     -19.20394282       74      -0.08689371       0.02315903       0.32360587 
W       0.01856257       1.67408550     -19.15838182       74       0.43132765      -0.20656185      -0.64628737 
W       0.06229431       0.06678860     -21.43367840       74       0.03586313       0.10838038       0.10542381 
W       2.31668435       1.68070290     -21.43214013       74      -0.23210113      -0.28745685       0.03333308 
W       2.32361112       0.04938451     -23.66513218       74      -0.28507041       0.03697920      -0.28320685 
W       0.06106960       1.63803557     -23.68330452       74       0.03289979       0.04921123       0.15546163 
W       0.04248916       0.04158837     -25.90915074       74      -0.19161309      -0.03601911      -0.23869364 
W       2.26829195       1.60921975     -25.94122166       74       0.37431011       0.33134948       0.40605347 
W       2.26709580       0.06613470     -28.17210709       74       0.23453451      -0.23654721       0.04665595 
W       0.02563230       1.64274247     -28.15650967       74      -0.08279228      -0.05673386      -0.28085002 
W       0.05076473       0.01571771     -30.43559286       74      -0.34271033       0.40141128       0.09470585 
W       2.27370041       1.65747762     -30.39674516       74       0.25452618      -0.29383793      -0.60963189 
W       2.30080827       0.06215117     -32.68967078       74      -0.24738659      -0.23763620       0.18351449 
W       0.02866452       1.61258694     -32.71018083       74       0.18712805       0.28389496       0.47000380 
W       0.05541420       0.04780900     -34.95992167       74      -0.40438522      -0.10053535       0.47654632 
W       2.26314549       1.64190506     -34.92836458       74       0.58835535      -0.08233495      -0.02330487 
W       2.30805256       0.03324957     -37.14654827       74      -0.29822210      -0.01758089      -0.49817596 
W       0.04757042       1.61667368     -37.18283954       74      -0.13501566       0.04228617       0.16267174 
W       0.01542766       0.00556987     -39.39111473       74       0.19426581       0.26877313      -0.39517584 
W       2.25465012       1.61088490     -39.41861620       74       0.35441011      -0.05483114       0.23514989 
W       2.31072799       0.01390901     -41.65211519       74      -0.39466839       0.25444645      -0.71061033 
W       0.03676451       1.63915163     -41.66863518       74       0.29077019      -0.35246293      -0.37410243 
40
Lattice="0.0 3.1800609526947103 0.0 4.497285328473964 0.0 0.0 0.0 0.0 -54.97285328473965" Properties=species:S:1:pos:R:3:Z:I:1:forces:R:3 energy=-441.903265463 pbc="T T T"
W       0.06702985       0.02552356     -43.85955062       74      -0.03883298       0.10742559       0.06596118 
W       2.32251450       1.63871398     -43.87422675       74      -0.13531658      -0.14894262       0.22075663 
W       2.29686190       0.05915082      -1.24972979       74       0.10471919      -0.02501013      -0.03096895 
W       0.06523291       1.65166921      -1.23091073       74      -0.14986273      -0.04538376      -0.22405738 
W       0.04266865       0.05068013      -3.41676723       74       0.17797397       0.02787831      -0.07399909 
W       2.30627486       1.63763622      -3.41970301       74      -0.22459518       0.07905916      -0.08507791 
W       2.28481267       0.05602351      -5.70303714       74       0.06458364       0.04058935       0.28960977 
W       0.03367189       1.64355312      -5.70474214       74       0.17800985       0.06473007       0.30927402 
W       0.05468857       0.07175992      -7.94111635       74      -0.05045777      -0.09060619      -0.01379851 
W       2.30690756       1.67195353      -7.93984185       74      -0.16322536      -0.23481181      -0.03644174 
W       2.29875522       0.04976501     -10.18229225       74      -0.02671340       0.03989592      -0.06378658 
W       0.04538499       1.63562721     -10.18338795       74       0.07680071       0.10652897      -0.05464124 
W       0.05198410       0.04706175     -12.43288976       74      -0.11692476      -0.07243831      -0.00087995 
W       2.28839826       1.62611562     -12.42958832       74       0.20587675       0.09313073      -0.05239397 
W       2.30354783       0.03573225     -14.67968913       74      -0.00268255       0.10663719      -0.05956215 
W       0.05972993       1.63202769     -14.68483395       74      -0.13175705       0.02132222       0.02927956 
W       0.04263533       0.05470797     -16.93441484       74       0.14649243       0.05083519      -0.02200580 
W       2.30267214       1.65103821     -16.93540488       74      -0.14472246      -0.04636496       0.00787972 
W       2.28912292       0.08023683     -19.18832381       74       0.07786106      -0.10292679       0.10056237 
W       0.03941283       1.66406729     -19.18986672       74       0.11615410      -0.02964254       0.13104226 
W       0.06414384       0.07206024     -21.42851012       74      -0.16407644      -0.03465132      -0.07532055 
W       2.30538551       1.66680098     -21.43048473       74       0.03682098      -0.09462753      -0.03726462 
W       2.30980754       0.05117160     -23.67891613       74      -0.06732790       0.02511872       0.06065797 
W       0.06273576       1.64040237     -23.67576673       74      -0.11634391       0.04156993       0.00119015 
W       0.03310388       0.03981809     -25.92070058       74       0.12823257       0.04731972      -0.05898811 
W       2.28648350       1.62522911     -25.92150132       74      -0.01535419       0.12675323      -0.04160788 
W       2.27854046       0.05470751     -28.16978731       74      -0.05657148      -0.09797395      -0.08525112 
W       0.02148061       1.64001722     -28.17008483       74       0.18211551      -0.04605782      -0.08668666 
W       0.03410379       0.03511093     -30.43103935       74       0.03227216       0.14562450       0.06220222 
W       2.28610930       1.64327674     -30.42632069       74      -0.07933715      -0.10043287      -0.01136050 
W       2.28884934       0.05066382     -32.68076910       74      -0.05270855      -0.08073800       0.00870609 
W       0.03770200       1.62630610     -32.68743714       74       0.03689092       0.10090122       0.11425068 
W       0.03568445       0.04294844     -34.93688119       74       0.12113500      -0.03238872       0.14724060 
W       2.29178235       1.63794928     -34.92949706       74      -0.09215797      -0.07661162       0.02876981 
W       2.29368784       0.03240844     -37.17072755       74      -0.14355534      -0.01829133      -0.01541716 
W       0.04101667       1.61870443     -37.17499548       74      -0.02100010       0.03519537       0.04554928 
W       0.02480852       0.01857358     -39.41013748       74       0.10477803       0.07213076      -0.23640261 
W       2.27175344       1.60818965     -39.40703112       74       0.16226148       0.06703190      -0.27106558 
W       2.29149553       0.02622594     -41.68657162       74       0.13240105       0.04562213      -0.01304695 
W       0.05093188       1.62209520     -41.68679678       74      -0.09185555      -0.06739992       0.02709267 
40
Lattice="0.0 3.1800609526947103 0.0 4.497285328473964 0.0 0.0 0.0 0.0 -54.97285328473965" Properties=species:S:1:pos:R:3:Z:I:1:forces:R:3 energy=-441.921156534 pbc="T T T"
W       0.06674034       0.02758652     -43.85793585       74      -0.05017586       0.07923585       0.04827812 
W       2.32004561       1.63604167     -43.86985044       74      -0.11438260      -0.12238577       0.17147330 
W       2.29915671       0.05871962      -1.25121058       74       0.06280819      -0.02093134      -0.01460105 
W       0.06231724       1.65092528      -1.23547510       74      -0.11194651      -0.04083121      -0.17803416 
W       0.04384356       0.05063464      -3.41627006       74       0.14154080       0.04012623      -0.08634170 
W       2.30392244       1.63946923      -3.41901572       74      -0.16706603       0.05823767      -0.09235833 
W       2.28624379       0.05615279      -5.70045018       74       0.06854879       0.04152132       0.25412368 
W       0.03675575       1.64534882      -5.69993679       74       0.12594520       0.03839568       0.23464236 
W       0.05341209       0.06973464      -7.94196791       74      -0.04684078      -0.07239569       0.02916105 
W       2.30425501       1.66821406      -7.93908420       74      -0.11832694      -0.19981555      -0.03006901 
W       2.29916959       0.04988193     -10.18373389       74      -0.03386338       0.04488135      -0.04507234 
W       0.04598206       1.63832065     -10.18331141       74       0.06816072       0.06537416      -0.06247938 
W       0.05149991       0.04490737     -12.43390247       74      -0.09054614      -0.02971308       0.01227648 
W       2.29045217       1.62837767     -12.43070845       74       0.16522405       0.06457257      -0.04352814 
W       2.30257138       0.03752106     -14.68143209       74       0.00020798       0.09213086      -0.03217470 
W       0.05834548       1.63234733     -14.68343887       74      -0.11476591       0.02487658      -0.00113465 
W       0.04320180       0.05608596     -16.93370670       74       0.13136807       0.02893000      -0.02518659 
W       2.30204736       1.64984549     -16.93519841       74      -0.12555618      -0.02661314       0.01189472 
W       2.29007774       0.07881409     -19.18630687       74       0.08031122      -0.09921403       0.06224470 
W       0.04186298       1.66324963     -19.18925781       74       0.08277690      -0.02592967       0.12258884 
W       0.06189388       0.07176712     -21.42937390       74      -0.12643057      -0.04153770      -0.04844318 
W       2.30546063       1.66491217     -21.43093897       74       0.01583315      -0.07773919      -0.01683268 
W       2.30830932       0.05160266     -23.67859283       74      -0.06058032       0.02555887       0.04736534 
W       0.06114883       1.64108675     -23.67546118       74      -0.10317520       0.03696422      -0.01549015 
W       0.03455326       0.04042517     -25.92198743       74       0.10336138       0.05050466      -0.04362301 
W       2.28698362       1.62765348     -25.92133309       74      -0.00722503       0.09979507      -0.05575529 
W       2.27820140       0.05286871     -28.17090433       74      -0.02408966      -0.07764703      -0.07352702 
W       0.02388782       1.63925789     -28.17184086       74       0.14016234      -0.03839643      -0.06082464 
W       0.03390815       0.03793126     -30.42998313       74       0.02620429       0.10716375       0.04509233 
W       2.28547125       1.64129881     -30.42762848       74      -0.06248604      -0.07349568       0.01270371 
W       2.28764695       0.04906940     -32.68029917       74      -0.02346936      -0.06089164       0.01103741 
W       0.03856194       1.62827271     -32.68493009       74       0.00972165       0.07502874       0.08563966 
W       0.03661582       0.04229924     -34.93389497       74       0.09174587      -0.02558799       0.10660967 
W       2.29160579       1.63670410     -34.92912200       74      -0.08124513      -0.06858004       0.03066155 
W       2.29110705       0.03211687     -37.17189359       74      -0.09491702      -0.01265815      -0.01279890 
W       0.04045456       1.61928269     -37.17405990       74      -0.02593558       0.02920821       0.01367968 
W       0.02667097       0.02010479     -39.41422290       74       0.09847464       0.05639679      -0.17244743 
W       2.27472170       1.60904047     -39.41042167       74       0.12689307       0.06740735      -0.22932696 
W       2.29262814       0.02734917     -41.68808034       74       0.10783883       0.02657103       0.01291429 
W       0.05017904       1.62048159     -41.68711090       74      -0.06410289      -0.03851758       0.02766242 
40
Lattice="0.0 3.1800609526947103 0.0 4.497285328473964 0.0 0.0 0.0 0.0 -54.97285328473965" Properties=species:S:1:pos:R:3:Z:I:1:forces:R:3 energy=-441.951405655 pbc="T T T"
W       0.06413227       0.03397141     -43.85327935       74      -0.06876815      -0.00855234       0.00826562 
W       2.31141869       1.62684987     -43.85593266       74      -0.04816200      -0.03391985       0.02460536 
W       2.30510100       0.05719791      -1.25446876       74      -0.05034356      -0.00740246      -0.00837289 
W       0.05326770       1.64805892      -1.25010294       74      -0.00226383      -0.01965248      -0.05074149 
W       0.05006786       0.05217608      -3.41834233       74      -0.03970294       0.05455761      -0.04694692 
W       2.29482601       1.64488383      -3.42068523       74       0.07313861       0.00618268      -0.02515365 
W       2.29179662       0.05780936      -5.68744406       74       0.06847755       0.02000931       0.04045916 
W       0.04626034       1.64987074      -5.68369293       74      -0.02705568      -0.02136756      -0.02905468 
W       0.04915033       0.06337869      -7.94170009       74      -0.03540163      -0.03343460       0.11534221 
W       2.29575023       1.65434622      -7.93822622       74       0.02285546      -0.06159875       0.03803232 
W       2.29879218       0.05174724     -10.18789672       74      -0.01845726       0.03136196       0.01382752 
W       0.04928655       1.64530862     -10.18537884       74       0.00594543      -0.03605608      -0.03247427 
W       0.04820882       0.04031653     -12.43538740       74       0.04301010       0.07608016       0.00937211 
W       2.29928276       1.63472568     -12.43437372       74      -0.02287083      -0.00006260      -0.01769172 
W       2.30049783       0.04409959     -14.68559928       74      -0.02218481       0.03892250       0.02864483 
W       0.05197390       1.63396201     -14.68123570       74      -0.01820944       0.03712693      -0.05534154 
W       0.04830723       0.05950345     -16.93300357       74       0.00646082      -0.02480216      -0.00142037 
W       2.29711143       1.64686979     -16.93424078       74       0.01085208       0.02117095       0.02183805 
W       2.29489970       0.07251583     -19.18087173       74       0.06031562      -0.06707522      -0.03648752 
W       0.04907258       1.66068374     -19.18417244       74      -0.00478117      -0.02921484       0.03211988 
W       0.05381422       0.06956707     -21.43213416       74       0.01025568      -0.04956569       0.04426423 
W       2.30556480       1.65864351     -21.43192694       74      -0.06440505      -0.03066140       0.04401841 
W       2.30318998       0.05341009     -23.67669264       74      -0.04725315       0.02410521      -0.02174383 
W       0.05462347       1.64368692     -23.67574829       74      -0.04236451       0.01872447      -0.04729027 
W       0.04045518       0.04350994     -25.92584470       74      -0.00037357       0.04962677      -0.00655943 
W       2.28808908       1.63555187     -25.92317524       74       0.03687764       0.01862480      -0.05890007 
W       2.27756917       0.04680856     -28.17545633       74       0.08889655      -0.01135105      -0.01824333 
W       0.03263472       1.63653141     -28.17701041       74      -0.01019821      -0.00792762       0.01410269 
W       0.03415867       0.04663057     -30.42664121       74      -0.01102710      -0.01358775      -0.01041265 
W       2.28248228       1.63525014     -30.42945195       74       0.01551198       0.00785848       0.04281419 
W       2.28502549       0.04408705     -32.67883533       74       0.04306115      -0.00145188       0.02967089 
W       0.04002668       1.63437627     -32.67735804       74      -0.05311300      -0.00615449       0.00845409 
W       0.04084926       0.04021030     -34.92490381       74      -0.03709286      -0.00732978      -0.01694104 
W       2.28888187       1.63192084     -34.92722481       74      -0.00342769      -0.03410042       0.02154317 
W       2.28363321       0.03121175     -37.17483087       74       0.04658946       0.00793072      -0.02860361 
W       0.03821748       1.62135385     -37.17242689       74      -0.03376337       0.00734192      -0.06940306 
W       0.03385218       0.02491178     -39.42715163       74       0.07003298       0.01632103       0.03205917 
W       2.28447748       1.61314049     -39.42427568       74       0.02095667       0.05229814      -0.03055602 
W       2.29799310       0.03018270     -41.69027280       74      -0.01356153      -0.02188266       0.04610001 
W       0.04717077       1.61644288     -41.68687705       74       0.05154356       0.03890803      -0.00319556 
40
Lattice="0.0 3.1800609526947103 0.0 4.497285328473964 0.0 0.0 0.0 0.0 -54.97285328473965" Properties=species:S:1:pos:R:3:Z:I:1:forces:R:3 energy=-441.953703346 pbc="T T T"
W       0.06290192       0.03434755     -43.85281271       74      -0.06336263      -0.01542715       0.00615615 
W       2.31003319       1.62562504     -43.85449192       74      -0.04057241      -0.02425269       0.01400935 
W       2.30482097       0.05696804      -1.25480123       74      -0.05142180      -0.00569576      -0.01298097 
W       0.05252501       1.64754223      -1.25197462       74       0.00369753      -0.01441090      -0.03881391 
W       0.05010968       0.05312065      -3.41928968       74      -0.03581333       0.04525279      -0.03402766 
W       2.29506229       1.64538269      -3.42130576       74       0.06896667       0.00541797      -0.01196104 
W       2.29320829       0.05826504      -5.68567195       74       0.04728896       0.01099766       0.01359859 
W       0.04664141       1.64988579      -5.68277502       74      -0.02038238      -0.01993785      -0.03900620 
W       0.04832450       0.06240582      -7.93998268       74      -0.02203140      -0.03193466       0.09125940 
W       2.29538072       1.65232076      -7.93768967       74       0.02369173      -0.04098237       0.03862884 
W       2.29844552       0.05238254     -10.18800590       74      -0.01037764       0.02000479       0.02175305 
W       0.04967825       1.64529884     -10.18606695       74      -0.00409577      -0.03421207      -0.01249780 
W       0.04847291       0.04110432     -12.43531689       74       0.04080312       0.07216325       0.00229761 
W       2.29975137       1.63520065     -12.43491096       74      -0.02976138       0.00343382      -0.01194757 
W       2.30006518       0.04519651     -14.68547813       74      -0.02051143       0.03211177       0.02471506 
W       0.05114635       1.63463563     -14.68190893       74      -0.00812559       0.03723910      -0.04324695 
W       0.04892623       0.05938951     -16.93303332       74      -0.00467003      -0.02326003       0.00130713 
W       2.29676369       1.64695927     -16.93385363       74       0.02205534       0.01847287       0.01586700 
W       2.29618103       0.07101608     -19.18097222       74       0.04395353      -0.05628178      -0.02789747 
W       0.04956033       1.66006787     -19.18320045       74      -0.00391132      -0.03287185       0.01840321 
W       0.05327309       0.06865302     -21.43174579       74       0.01074144      -0.04460467       0.03826212 
W       2.30467559       1.65770822     -21.43138506       74      -0.05712238      -0.02732096       0.03438909 
W       2.30211247       0.05390487     -23.67681175       74      -0.04102824       0.02092204      -0.02355265 
W       0.05345813       1.64416959     -23.67646868       74      -0.03497922       0.01551073      -0.03570826 
W       0.04097393       0.04449025     -25.92623692       74      -0.00309173       0.04340249      -0.00720366 
W       2.28866310       1.63644446     -25.92422665       74       0.03075177       0.01335996      -0.04638604 
W       2.27876337       0.04616649     -28.17610708       74       0.07709736      -0.00363529      -0.00994031 
W       0.03324245       1.63619661     -28.17720689       74      -0.00683245      -0.00328431       0.01378705 
W       0.03406887       0.04711290     -30.42652156       74      -0.00538663      -0.02114203      -0.00980089 
W       2.28242117       1.63489232     -30.42891508       74       0.01618940       0.01150607       0.03422452 
W       2.28544739       0.04367710     -32.67830575       74       0.02896740       0.00173262       0.02671682 
W       0.03936905       1.63476302     -32.67665826       74      -0.03981419      -0.01262945       0.00217744 
W       0.04072502       0.03994035     -34.92445522       74      -0.03769622      -0.00695632      -0.02536604 
W       2.28852397       1.63103799     -34.92675705       74      -0.00262915      -0.02609531       0.01234215 
W       2.28370665       0.03125328     -37.17542522       74       0.04378476       0.00965312      -0.02411793 
W       0.03756673       1.62162855     -37.17330443       74      -0.01969206       0.00521521      -0.05878411 
W       0.03544046       0.02552003     -39.42773010       74       0.05628499       0.01618933       0.03613034 
W       2.28556060       1.61424636     -39.42590450       74       0.01866910       0.04351229      -0.00635430 
W       2.29829814       0.03007401     -41.68970510       74      -0.01461924      -0.01839120       0.03807847 
W       0.04762409       1.61670927     -41.68685982       74       0.04498553       0.03722878      -0.00450961 
40
Lattice="0.0 3.1800609526947103 0.0 4.497285328473964 0.0 0.0 0.0 0.0 -54.97285328473965" Properties=species:S:1:pos:R:3:Z:I:1:forces:R:3 energy=-441.958077633 pbc="T T T"
W       0.05813447       0.03457096     -43.85156658       74      -0.03796072      -0.02693494       0.00151498 
W       2.30567293       1.62221565     -43.85091862       74      -0.02038401      -0.00055144      -0.00673172 
W       2.30251187       0.05628786      -1.25613126       74      -0.03548350      -0.00047468      -0.02190251 
W       0.05103709       1.64600248      -1.25732378       74       0.00912756       0.00271928      -0.00600785 
W       0.04914638       0.05654602      -3.42225525       74       0.01343810       0.00787767      -0.00401779 
W       2.29772941       1.64670754      -3.42279759       74       0.00720410       0.00710685       0.00920004 
W       2.29749631       0.05946063      -5.68175365       74      -0.02609670      -0.01607652      -0.03681050 
W       0.04706011       1.64932531      -5.68211033       74       0.02069635      -0.00870951      -0.02725838 
W       0.04601512       0.05913491      -7.93365743       74       0.02455312      -0.02579096      -0.00847716 
W       2.29528221       1.64677514      -7.93517257       74       0.00737312       0.01187761       0.01982715 
W       2.29750889       0.05422418     -10.18737063       74       0.00946487      -0.01632458       0.03669412 
W       0.05021238       1.64423616     -10.18757624       74      -0.02298387      -0.01361000       0.04402720 