4
Lattice="1.9216436272305817 -3.3283843980132555 2.7037585342885643e-21 1.9216436272305817 3.328384398013256 -2.7037585935583406e-21 -9.630383303039841e-29 -5.186534160701288e-21 6.169391998428649" Properties=species:S:1:pos:R:3:Z:I:1:forces:R:3 cutoff=-1.0 stress="-4.0288382488790116e-05 -3.295919330535685e-22 -5.675204497658982e-30 -3.295919330535685e-22 -4.028838244983935e-05 -6.957942589945937e-26 -5.675204497658982e-30 -6.957942589945937e-26 -4.3955076914985565e-05" Minim_Constant_Volume=T nneightol=1.2 pbc="T T T" energy=-652.674205006 Minim_Hydrostatic_Strain=F
Si       1.92164363       1.10946147       0.38176854       14       0.00000000      -0.00000000       0.00036170 
Si       1.92164363      -1.10946147       3.46646453       14      -0.00000000      -0.00000000       0.00036170 
Si       1.92164363       1.10946147       2.70292747       14       0.00000000       0.00000000      -0.00036170 
Si       1.92164363      -1.10946147      -0.38176854       14       0.00000000       0.00000000      -0.00036170 
4
Lattice="1.9049044134011743 -3.299391229064722 2.503773895088803e-21 1.9049044134011743 3.2993912290647223 -2.5037740505408807e-21 -2.5066583111049417e-28 -4.809768816215405e-21 6.121334786753635" Properties=species:S:1:pos:R:3:Z:I:1:forces:R:3 cutoff=-1.0 stress="-0.017747510413122374 -7.46708773339637e-18 3.189042584431348e-29 -7.46708773339637e-18 -0.01774751039707461 -2.741260927901481e-23 3.189042584431348e-29 -2.741260927901481e-23 -0.017747283812651064" Minim_Constant_Volume=T nneightol=1.2 pbc="T T T" energy=-652.656956611 Minim_Hydrostatic_Strain=F
Si       1.90490441       1.09979708       0.37832788       14       0.00000000      -0.00000000       0.00000465 
Si       1.90490441      -1.09979708       3.43899527       14       0.00000000       0.00000000       0.00000465 
Si       1.90490441       1.09979708       2.68233952       14      -0.00000000      -0.00000000      -0.00000465 
Si       1.90490441      -1.09979708      -0.37832788       14       0.00000000       0.00000000      -0.00000465 
4
Lattice="1.886886609086012 -3.26818347634075 2.146929370641009e-21 1.886886609086012 3.2681834763407505 -2.1469295379829274e-21 -2.6914075658425725e-28 -4.134635120480905e-21 6.0788149255464825" Properties=species:S:1:pos:R:3:Z:I:1:forces:R:3 cutoff=-1.0 stress="-0.037408697314326333 -5.589713360925789e-18 4.215311141720141e-29 -5.589713360925789e-18 -0.03740869728496829 -5.0021918111421165e-23 4.215311141720141e-29 -5.0021918111421165e-23 -0.03741350877079138" Minim_Constant_Volume=T nneightol=1.2 pbc="T T T" energy=-652.602881098 Minim_Hydrostatic_Strain=F
Si       1.88688661       1.08939449       0.37620642       14      -0.00000000       0.00000000      -0.00008859 
Si       1.88688661      -1.08939449       3.41561388       14      -0.00000000       0.00000000      -0.00008859 
Si       1.88688661       1.08939449       2.66320105       14      -0.00000000      -0.00000000       0.00008859 
Si       1.88688661      -1.08939449      -0.37620642       14       0.00000000      -0.00000000       0.00008859 
4
Lattice="1.8678506037698153 -3.2352121476922395 1.6915593305054307e-21 1.8678506037698153 3.23521214769224 -1.6915597537835469e-21 -6.805542637582091e-28 -3.271585774611458e-21 6.04008643109008" Properties=species:S:1:pos:R:3:Z:I:1:forces:R:3 cutoff=-1.0 stress="-0.059772498857737166 -8.378200062377218e-18 2.8487756439861256e-29 -8.378200062377218e-18 -0.05977249882024217 -6.363716212036875e-23 2.8487756439861256e-29 -6.363716212036875e-23 -0.05978999630939418" Minim_Constant_Volume=T nneightol=1.2 pbc="T T T" energy=-652.507602578 Minim_Hydrostatic_Strain=F
Si       1.86785060       1.07840405       0.37533483       14       0.00000000       0.00000000      -0.00027475 
Si       1.86785060      -1.07840405       3.39537804       14       0.00000000       0.00000000      -0.00027475 
Si       1.86785060       1.07840405       2.64470839       14      -0.00000000      -0.00000000       0.00027475 
Si       1.86785060      -1.07840405      -0.37533483       14       0.00000000      -0.00000000       0.00027475 
4
Lattice="1.8474080742684078 -3.1998046476591195 1.1808413143190299e-21 1.8474080742684078 3.19980464765912 -1.1808420336501479e-21 -1.1550098884595346e-27 -2.299872487684717e-21 6.007586437274514" Properties=species:S:1:pos:R:3:Z:I:1:forces:R:3 cutoff=-1.0 stress="-0.08504402714074967 1.5761563816545136e-17 4.1283277447842144e-29 1.5761563816545136e-17 -0.08504402710283587 -2.7326990831066316e-29 4.1283277447842144e-29 -2.7326990831066316e-29 -0.08503654245563891" Minim_Constant_Volume=T nneightol=1.2 pbc="T T T" energy=-652.365129118 Minim_Hydrostatic_Strain=F
Si       1.84740807       1.06660155       0.37640367       14       0.00000000      -0.00000000       0.00005872 
Si       1.84740807      -1.06660155       3.38019688       14       0.00000000       0.00000000       0.00005872 
Si       1.84740807       1.06660155       2.62738956       14      -0.00000000      -0.00000000      -0.00005872 
Si       1.84740807      -1.06660155      -0.37640367       14      -0.00000000       0.00000000      -0.00005872 
4
Lattice="1.8250548990145237 -3.1610878121282324 1.036196988634049e-21 1.8250548990145241 3.1610878121282333 -1.0361985473054896e-21 -2.5076280754106937e-27 -2.0099366580143588e-21 5.984585253238602" Properties=species:S:1:pos:R:3:Z:I:1:forces:R:3 cutoff=-1.0 stress="-0.11279766239713385 4.2454884468757136e-18 8.357740125971217e-29 4.2454884468757136e-18 -0.11279766236626138 -7.485815091700047e-23 8.357740125971217e-29 -7.485815091700047e-23 -0.11279756794562042" Minim_Constant_Volume=T nneightol=1.2 pbc="T T T" energy=-652.170366854 Minim_Hydrostatic_Strain=F
Si       1.82505490       1.05369594       0.38031131       14       0.00000000      -0.00000000       0.00012523 
Si       1.82505490      -1.05369594       3.37260393       14      -0.00000000       0.00000000       0.00012523 
Si       1.82505490       1.05369594       2.61198132       14      -0.00000000       0.00000000      -0.00012523 
Si       1.82505490      -1.05369594      -0.38031131       14       0.00000000       0.00000000      -0.00012523 
4
Lattice="1.9371403496532114 -3.3552255087167784 2.7460007349350086e-21 1.9371403496532114 3.355225508716779 -2.7460007352105234e-21 -1.5154785621549682e-30 -5.263250354547245e-21 6.222855582302635" Properties=species:S:1:pos:R:3:Z:I:1:forces:R:3 cutoff=-1.0 stress="0.015968701250838137 1.0889213712096133e-18 -1.6557876238584865e-32 1.0889213712096133e-18 0.01596870123441193 -4.70971626650817e-17 -1.6557876238584865e-32 -4.70971626650817e-17 0.015975134072004002" Minim_Constant_Volume=T nneightol=1.2 pbc="T T T" energy=-652.658236835 Minim_Hydrostatic_Strain=F
Si       1.93714035       1.11840850       0.38631433       14      -0.00000000      -0.00000000       0.00017809 
Si       1.93714035      -1.11840850       3.49774212       14       0.00000000      -0.00000000       0.00017809 
Si       1.93714035       1.11840850       2.72511346       14       0.00000000       0.00000000      -0.00017809 
Si       1.93714035      -1.11840850      -0.38631433       14       0.00000000       0.00000000      -0.00017809 
4
Lattice="1.9515449349521314 -3.3801749825770524 5.137364625386515e-16 1.9515449349521314 3.380174982577053 -5.137364625387699e-16 -1.9118710303661345e-28 -9.52683570321549e-16 6.2808685460869" Properties=species:S:1:pos:R:3:Z:I:1:forces:R:3 cutoff=-1.0 stress="0.030570816781103845 -1.8187648418326883e-19 7.094932772975803e-30 -1.8187648418326883e-19 0.030570816745175755 9.283604960688252e-18 7.094932772975803e-30 9.283604960688252e-18 0.030572828795378443" Minim_Constant_Volume=T nneightol=1.2 pbc="T T T" energy=-652.612117431 Minim_Hydrostatic_Strain=F
Si       1.95154493       1.12672499       0.39161475       14      -0.00000000      -0.00000000       0.00002715 
Si       1.95154493      -1.12672499       3.53204902       14      -0.00000000      -0.00000000       0.00002715 
Si       1.95154493       1.12672499       2.74881953       14       0.00000000       0.00000000      -0.00002715 
Si       1.95154493      -1.12672499      -0.39161475       14       0.00000000       0.00000000      -0.00002715 
4
Lattice="1.9653617457008106 -3.404106401244218 5.58589677706324e-16 1.9653617457008106 3.4041064012442184 -5.585896777065347e-16 -3.389682625847721e-28 -1.033737683072961e-15 6.340311611907527" Properties=species:S:1:pos:R:3:Z:I:1:forces:R:3 cutoff=-1.0 stress="0.04382737134605767 -7.348732662153407e-18 -2.06552955371068e-29 -7.348732662153407e-18 0.04382737128327603 1.4337769710503757e-17 -2.06552955371068e-29 1.4337769710503757e-17 0.04382921801111863" Minim_Constant_Volume=T nneightol=1.2 pbc="T T T" energy=-652.538532303 Minim_Hydrostatic_Strain=F
Si       1.96536175       1.13470213       0.39706788       14       0.00000000      -0.00000000       0.00002545 
Si       1.96536175      -1.13470213       3.56722368       14       0.00000000      -0.00000000       0.00002545 
Si       1.96536175       1.13470213       2.77308793       14       0.00000000       0.00000000      -0.00002545 
Si       1.96536175      -1.13470213      -0.39706788       14      -0.00000000       0.00000000      -0.00002545 
4
Lattice="1.9776911226723994 -3.425461509456295 5.945726260190589e-16 1.9776911226723994 3.4254615094562952 -5.945726260191581e-16 -1.5754856058508561e-28 -1.0960827400600912e-15 6.407089202860367" Properties=species:S:1:pos:R:3:Z:I:1:forces:R:3 cutoff=-1.0 stress="0.055833345111104625 4.743642714305507e-18 -8.489051633423989e-30 4.743642714305507e-18 0.05583334500320954 -1.174423655175085e-18 -8.489051633423989e-30 -1.174423655175085e-18 0.055838559086092414" Minim_Constant_Volume=T nneightol=1.2 pbc="T T T" energy=-652.439901047 Minim_Hydrostatic_Strain=F
Si       1.97769112       1.14182050       0.40352533       14      -0.00000000      -0.00000000       0.00009643 
Si       1.97769112      -1.14182050       3.60706992       14      -0.00000000      -0.00000000       0.00009643 
Si       1.97769112       1.14182050       2.80001928       14       0.00000000       0.00000000      -0.00009643 
Si       1.97769112      -1.14182050      -0.40352533       14       0.00000000       0.00000000      -0.00009643 
4
Lattice="1.9876761916810068 -3.4427561575121937 8.112473327739473e-16 1.9876761916810068 3.442756157512194 -8.1124733277398185e-16 -5.139770048854832e-29 -1.4926949476161121e-15 6.486961395866181" Properties=species:S:1:pos:R:3:Z:I:1:forces:R:3 cutoff=-1.0 stress="0.06627975535748082 5.752844517261161e-18 8.172269903468742e-30 5.752844517261161e-18 0.06627975518322474 3.0864509665830995e-17 8.172269903468742e-30 3.0864509665830995e-17 0.06625848173113745" Minim_Constant_Volume=T nneightol=1.2 pbc="T T T" energy=-652.319471039 Minim_Hydrostatic_Strain=F
Si       1.98767619       1.14758539       0.41168131       14       0.00000000      -0.00000000       0.00019056 
Si       1.98767619      -1.14758539       3.65516200       14       0.00000000      -0.00000000       0.00019056 
Si       1.98767619       1.14758539       2.83179939       14      -0.00000000       0.00000000      -0.00019056 
Si       1.98767619      -1.14758539      -0.41168131       14       0.00000000       0.00000000      -0.00019056 
4
Lattice="1.9979004734689652 -3.4604651348986613 1.1403690523504799e-15 1.9979004734689647 3.4604651348986613 -1.1403690523504002e-15 1.3535761763154672e-28 -2.101891853259818e-15 6.563448231546421" Properties=species:S:1:pos:R:3:Z:I:1:forces:R:3 cutoff=-1.0 stress="0.07658026672643956 -1.5532510382204666e-17 1.3254517466618201e-30 -1.5532510382204666e-17 0.07658026644386103 4.976195839202685e-17 1.3254517466618201e-30 4.976195839202685e-17 0.0765842592826252" Minim_Constant_Volume=T nneightol=1.2 pbc="T T T" energy=-652.178524218 Minim_Hydrostatic_Strain=F
Si       1.99790047       1.15348838       0.41905788       14       0.00000000      -0.00000000       0.00002330 
Si       1.99790047      -1.15348838       3.70078199       14       0.00000000      -0.00000000       0.00002330 
Si       1.99790047       1.15348838       2.86266624       14       0.00000000       0.00000000      -0.00002330 
Si       1.99790047      -1.15348838      -0.41905788       14      -0.00000000       0.00000000      -0.00002330 
