12
Lattice="5.584982249102776 -9.995260797280995e-36 1.3012467092391433e-19 -1.0362574054653274e-35 5.584982249102776 1.7762834180519396e-17 1.7302593700357802e-19 2.1917587535930833e-17 6.421172006886829" Properties=species:S:1:pos:R:3:Z:I:1:forces:R:3 cutoff=-1.0 stress="4.9190171519938845e-05 -4.307408720077895e-40 -3.449972038400428e-24 -4.307408720077895e-40 4.9190171519938845e-05 -3.200600211410776e-60 -3.449972038400428e-24 -3.200600211410776e-60 -5.964470583066857e-05" Minim_Constant_Volume=T nneightol=1.2 pbc="T T T" energy=-1955.91206284 Minim_Hydrostatic_Strain=F
Si       0.52573842       0.52573842       0.00000000       14      -0.00063889      -0.00063889      -0.00000000 
Si      -0.52573842      -0.52573842       3.21058601       14       0.00063889       0.00063889       0.00000000 
Si       2.26675270       3.31822955       4.81587901       14       0.00063889      -0.00063889      -0.00000000 
Si       3.31822955       2.26675270       1.60529300       14      -0.00063889       0.00063889       0.00000000 
Si       0.73124113       3.77957445       0.05812376       14      -0.00145523      -0.00000609       0.00085367 
Si       0.98708332       2.06124999       1.66341676       14      -0.00000609       0.00145523       0.00085367 
Si       1.80540780       4.85374112       3.15246225       14       0.00000609       0.00145523      -0.00085367 
Si       2.06124999       0.98708332       4.75775525       14       0.00145523      -0.00000609      -0.00085367 
Si       3.52373226       4.59789893       1.54716924       14      -0.00145523       0.00000609      -0.00085367 
Si       3.77957445       0.73124113      -0.05812376       14      -0.00000609      -0.00145523      -0.00085367 
Si       4.59789893       3.52373226       4.87400276       14       0.00000609      -0.00145523       0.00085367 
Si       4.85374112       1.80540780       3.26870975       14       0.00145523       0.00000609       0.00085367 
12
Lattice="5.5489637421332585 -1.935846878855017e-36 8.044138076899909e-20 -2.3781726386567107e-36 5.5489637421332585 1.3460879508993765e-17 1.163697483568311e-19 1.7079434803115576e-17 6.34207174105391" Properties=species:S:1:pos:R:3:Z:I:1:forces:R:3 cutoff=-1.0 stress="-0.017817397198546858 -3.102225763765779e-36 1.2224016050653495e-20 -3.102225763765779e-36 -0.017817397198546855 4.5374293594996886e-18 1.2224016050653495e-20 4.5374293594996886e-18 -0.017782177360120832" Minim_Constant_Volume=T nneightol=1.2 pbc="T T T" energy=-1955.86853106 Minim_Hydrostatic_Strain=F
Si       0.51134839       0.51134839       0.00000000       14      -0.00005371      -0.00005371      -0.00000000 
Si      -0.51134839      -0.51134839       3.17103588       14       0.00005371       0.00005371       0.00000000 
Si       2.26313347       3.28583027       4.75655381       14       0.00005371      -0.00005371      -0.00000000 
Si       3.28583027       2.26313347       1.58551793       14      -0.00005371       0.00005371       0.00000000 
Si       0.72919595       3.75115245       0.05796558       14      -0.00001481      -0.00001309      -0.00011917 
Si       0.97667057       2.04528592       1.64348351       14      -0.00001309       0.00001481      -0.00011917 
Si       1.79781129       4.81976779       3.11307030       14       0.00001309       0.00001481       0.00011917 
Si       2.04528592       0.97667057       4.69858823       14       0.00001481      -0.00001309       0.00011917 
Si       3.50367782       4.57229317       1.52755236       14      -0.00001481       0.00001309       0.00011917 
Si       3.75115245       0.72919595      -0.05796558       14      -0.00001309      -0.00001481       0.00011917 
Si       4.57229317       3.50367782       4.81451938       14       0.00001309      -0.00001481      -0.00011917 
Si       4.81976779       1.79781129       3.22900144       14       0.00001481       0.00001309      -0.00011917 
12
Lattice="5.6658941477659255 -1.555265197592363e-36 1.6190265027808758e-18 -2.3371492547386168e-36 5.6658941477659255 1.234651258547191e-16 1.879264421480172e-18 1.4303714124297426e-16 5.908226139010019" Properties=species:S:1:pos:R:3:Z:I:1:forces:R:3 cutoff=-1.0 stress="-0.009145129878805182 2.3386486015027173e-55 -1.5799346126895676e-22 2.3386486015027173e-55 -0.009145129878805182 -3.2585704094376223e-59 -1.5799346126895676e-22 -3.2585704094376223e-59 -0.008867126176438022" Minim_Constant_Volume=T nneightol=1.2 pbc="T T T" energy=-1955.92503886 Minim_Hydrostatic_Strain=F
Si       0.52249746       0.52249746       0.00000000       14      -0.00089247      -0.00089247       0.00000000 
Si      -0.52249746      -0.52249746       2.95411307       14       0.00089247       0.00089247       0.00000000 
Si       2.31044961       3.35544454       4.43116961       14       0.00089247      -0.00089247       0.00000000 
Si       3.35544454       2.31044961       1.47705653       14      -0.00089247       0.00089247       0.00000000 
Si       0.80449412       3.88191301       0.22397448       14       0.00001492       0.00066821      -0.00078426 
Si       1.04896593       2.02845295       1.70103101       14       0.00066821      -0.00001492      -0.00078426 
Si       1.78398114       4.86140003       2.73013860       14      -0.00066821      -0.00001492       0.00078426 
Si       2.02845295       1.04896593       4.20719513       14      -0.00001492       0.00066821       0.00078426 
Si       3.63744120       4.61692822       1.25308206       14       0.00001492      -0.00066821       0.00078426 
Si       3.88191301       0.80449412      -0.22397448       14       0.00066821       0.00001492       0.00078426 
Si       4.61692822       3.63744120       4.65514408       14      -0.00066821       0.00001492      -0.00078426 
Si       4.86140003       1.78398114       3.17808754       14      -0.00001492      -0.00066821      -0.00078426 
12
Lattice="5.613535623283484 -6.766302769600837e-37 1.5897646269037168e-18 -2.6843153052232816e-36 5.613535623283484 1.2552613977844405e-16 1.8396847458540607e-18 1.4448402042283898e-16 5.879257618087092" Properties=species:S:1:pos:R:3:Z:I:1:forces:R:3 cutoff=-1.0 stress="-0.033052900915251766 -2.3347726617016142e-37 -1.0003280590929509e-21 -2.3347726617016142e-37 -0.033052900915251766 -7.689377301173237e-18 -1.0003280590929509e-21 -7.689377301173237e-18 -0.03304706903221289" Minim_Constant_Volume=T nneightol=1.2 pbc="T T T" energy=-1955.83461825 Minim_Hydrostatic_Strain=F
Si       0.50700703       0.50700703       0.00000000       14       0.00002129       0.00002129       0.00000000 
Si      -0.50700703      -0.50700703       2.93962881       14      -0.00002129      -0.00002129       0.00000000 
Si       2.29976078       3.31377484       4.40944322       14      -0.00002129       0.00002129       0.00000000 
Si       3.31377484       2.29976078       1.46981440       14       0.00002129      -0.00002129      -0.00000000 
Si       0.79244082       3.83891541       0.20598544       14      -0.00009026      -0.00016437       0.00035873 
Si       1.03214760       2.01432699       1.67579985       14      -0.00016437       0.00009026       0.00035873 
Si       1.77462021       4.82109481       2.73364337       14       0.00016437       0.00009026      -0.00035873 
Si       2.01432699       1.03214760       4.20345777       14       0.00009026      -0.00016437      -0.00035873 
Si       3.59920863       4.58138803       1.26382896       14      -0.00009026       0.00016437      -0.00035873 
Si       3.83891541       0.79244082      -0.20598544       14      -0.00016437      -0.00009026      -0.00035873 
Si       4.58138803       3.59920863       4.61542866       14       0.00016437      -0.00009026       0.00035873 
Si       4.82109481       1.77462021       3.14561425       14       0.00009026       0.00016437       0.00035873 
12
Lattice="5.553898354387277 -6.741349529844629e-37 1.610216855307066e-18 -1.9875381298407905e-36 5.553898354387277 1.247638810757456e-16 1.85157240571009e-18 1.4294220229893364e-16 5.843861827208089" Properties=species:S:1:pos:R:3:Z:I:1:forces:R:3 cutoff=-1.0 stress="-0.07047540213580579 8.788574829500942e-40 -2.410886236279265e-21 8.788574829500942e-40 -0.07047540213580578 -4.3138422919895475e-58 -2.410886236279265e-21 -4.3138422919895475e-58 -0.07052792097190061" Minim_Constant_Volume=T nneightol=1.2 pbc="T T T" energy=-1955.58070297 Minim_Hydrostatic_Strain=F
Si       0.48874930       0.48874930       0.00000000       14       0.00044161       0.00044161      -0.00000000 
Si      -0.48874930      -0.48874930       2.92193092       14      -0.00044161      -0.00044161       0.00000000 
Si       2.28819987       3.26569848       4.38289637       14      -0.00044161       0.00044161       0.00000000 
Si       3.26569848       2.28819987       1.46096545       14       0.00044161      -0.00044161      -0.00000000 
Si       0.78056615       3.78726928       0.19058075       14       0.00063609       0.00035248       0.00072002 
Si       1.01032009       1.99638303       1.65154621       14       0.00035248      -0.00063609       0.00072002 
Si       1.76662908       4.77333221       2.73135016       14      -0.00035248      -0.00063609      -0.00072002 
Si       1.99638303       1.01032009       4.19231562       14      -0.00063609       0.00035248      -0.00072002 
Si       3.55751533       4.54357826       1.27038470       14       0.00063609      -0.00035248      -0.00072002 
Si       3.78726928       0.78056615      -0.19058075       14       0.00035248       0.00063609      -0.00072002 
Si       4.54357826       3.55751533       4.57347713       14      -0.00035248       0.00063609       0.00072002 
Si       4.77333221       1.76662908       3.11251166       14      -0.00063609      -0.00035248       0.00072002 
12
Lattice="5.48800963242568 5.1711942068168575e-36 1.6539824585594244e-18 6.746687542917982e-37 5.48800963242568 1.3972638497097624e-16 1.882892424196034e-18 1.5743205102950012e-16 5.818684087659264" Properties=species:S:1:pos:R:3:Z:I:1:forces:R:3 cutoff=-1.0 stress="-0.11921173124624318 -2.7234267946477792e-36 -1.1568194093292199e-20 -2.7234267946477792e-36 -0.11921173124624318 -2.806488154035021e-17 -1.1568194093292199e-20 -2.806488154035021e-17 -0.11918126232878107" Minim_Constant_Volume=T nneightol=1.2 pbc="T T T" energy=-1955.11343429 Minim_Hydrostatic_Strain=F
Si       0.47368174       0.47368174       0.00000000       14      -0.00126225      -0.00126225       0.00000000 
Si      -0.47368174      -0.47368174       2.90934205       14       0.00126225       0.00126225      -0.00000000 
Si       2.27032307       3.21768657       4.36401307       14       0.00126225      -0.00126225       0.00000000 
Si       3.21768657       2.27032307       1.45467102       14      -0.00126225       0.00126225       0.00000000 
Si       0.76396482       3.72979168       0.18252879       14       0.00035286      -0.00132854       0.00080076 
Si       0.98578686       1.98003999       1.63719981       14      -0.00132854      -0.00035286       0.00080076 
Si       1.75821795       4.72404481       2.72681326       14       0.00132854      -0.00035286      -0.00080076 
Si       1.98003999       0.98578686       4.18148428       14      -0.00035286      -0.00132854      -0.00080076 
Si       3.50796964       4.50222277       1.27214223       14       0.00035286       0.00132854      -0.00080076 
Si       3.72979168       0.76396482      -0.18252879       14      -0.00132854       0.00035286      -0.00080076 
Si       4.50222277       3.50796964       4.54654186       14       0.00132854       0.00035286       0.00080076 
Si       4.72404481       1.75821795       3.09187083       14      -0.00035286       0.00132854       0.00080076 
12
Lattice="5.624033722612087 -1.0465584406287125e-35 1.5689447536829312e-19 -1.1220245230468744e-35 5.624033722612087 3.5113031030273384e-17 2.033459448612086e-19 4.1817622961277667e-17 6.490569119232907" Properties=species:S:1:pos:R:3:Z:I:1:forces:R:3 cutoff=-1.0 stress="0.01473682133991308 1.0711006050432035e-54 1.6384017630274957e-21 1.0711006050432035e-54 0.01473682133991308 3.2722316722717706e-18 1.6384017630274957e-21 3.2722316722717706e-18 0.014738937396582441" Minim_Constant_Volume=T nneightol=1.2 pbc="T T T" energy=-1955.87371293 Minim_Hydrostatic_Strain=F
Si       0.53958763       0.53958763       0.00000000       14       0.00005839       0.00005839       0.00000000 
Si      -0.53958763      -0.53958763       3.24528456       14      -0.00005839      -0.00005839      -0.00000000 
Si       2.27242923       3.35160449       4.86792684       14      -0.00005839       0.00005839       0.00000000 
Si       3.35160449       2.27242923       1.62264228       14       0.00005839      -0.00005839      -0.00000000 
Si       0.73311870       3.81176782       0.05874690       14       0.00042297       0.00023214      -0.00039006 
Si       0.99975096       2.07889815       1.68138918       14       0.00023214      -0.00042297      -0.00039006 
Si       1.81226590       4.89091502       3.18653767       14      -0.00023214      -0.00042297       0.00039006 
Si       2.07889815       0.99975096       4.80917994       14      -0.00042297       0.00023214       0.00039006 
Si       3.54513557       4.62428276       1.56389538       14       0.00042297      -0.00023214       0.00039006 
Si       3.81176782       0.73311870      -0.05874690       14       0.00023214       0.00042297       0.00039006 
Si       4.62428276       3.54513557       4.92667374       14      -0.00023214       0.00042297      -0.00039006 
Si       4.89091502       1.81226590       3.30403145       14      -0.00042297      -0.00023214      -0.00039006 
12
Lattice="5.651102783785913 -1.001620884511797e-35 1.4409987445109013e-19 -1.1292594616244134e-35 5.651102783785913 4.9589223470862555e-17 1.868028469017164e-19 5.811815837149573e-17 6.585082134761181" Properties=species:S:1:pos:R:3:Z:I:1:forces:R:3 cutoff=-1.0 stress="0.025232859515863584 9.530576683178142e-54 2.606886468712889e-22 9.530576683178142e-54 0.025232859515863577 2.6046696749359727e-58 2.606886468712889e-22 2.6046696749359727e-58 0.025350514423216456" Minim_Constant_Volume=T nneightol=1.2 pbc="T T T" energy=-1955.77384722 Minim_Hydrostatic_Strain=F
Si       0.55571424       0.55571424       0.00000000       14      -0.00034171      -0.00034171      -0.00000000 
Si      -0.55571424      -0.55571424       3.29254107       14       0.00034171       0.00034171       0.00000000 
Si       2.26983714       3.38126564       4.93881160       14       0.00034171      -0.00034171      -0.00000000 
Si       3.38126564       2.26983714       1.64627053       14      -0.00034171       0.00034171       0.00000000 
Si       0.73408029       3.83887054       0.06015456       14       0.00099461       0.00036548      -0.00090951 
Si       1.01331915       2.09147110       1.70642509       14       0.00036548      -0.00099461      -0.00090951 
Si       1.81223224       4.91702249       3.23238651       14      -0.00036548      -0.00099461       0.00090951 
Si       2.09147110       1.01331915       4.87865705       14      -0.00099461       0.00036548       0.00090951 
Si       3.55963169       4.63778364       1.58611597       14       0.00099461      -0.00036548       0.00090951 
Si       3.83887054       0.73408029      -0.06015456       14       0.00036548       0.00099461       0.00090951 
Si       4.63778364       3.55963169       4.99896616       14      -0.00036548       0.00099461      -0.00090951 
Si       4.91702249       1.81223224       3.35269562       14      -0.00099461      -0.00036548      -0.00090951 
12
Lattice="5.689742783745599 -1.1448549697505345e-35 1.428951675437102e-19 -1.1577605542333775e-35 5.689742783745599 -1.0895174072476368e-17 1.851145099886966e-19 -1.250210857786765e-17 6.650879619410809" Properties=species:S:1:pos:R:3:Z:I:1:forces:R:3 cutoff=-1.0 stress="0.03618005174775765 4.351112092749278e-54 3.692330668005426e-22 4.351112092749278e-54 0.03618005174775765 8.033585296498036e-18 3.692330668005426e-22 8.033585296498036e-18 0.03618749347244123" Minim_Constant_Volume=T nneightol=1.2 pbc="T T T" energy=-1955.61842996 Minim_Hydrostatic_Strain=F
Si       0.55599042       0.55599042      -0.00000000       14       0.00004490       0.00004490      -0.00000000 
Si      -0.55599042      -0.55599042       3.32543981       14      -0.00004490      -0.00004490      -0.00000000 
Si       2.28888097       3.40086182       4.98815972       14      -0.00004490       0.00004490      -0.00000000 
Si       3.40086182       2.28888097       1.66271990       14       0.00004490      -0.00004490      -0.00000000 
Si       0.73666610       3.86402763       0.05174513       14      -0.00002449       0.00010968      -0.00021361 
Si       1.01915623       2.10820529       1.71446503       14       0.00010968       0.00002449      -0.00021361 
Si       1.82571516       4.95307669       3.27369468       14      -0.00010968       0.00002449       0.00021361 
Si       2.10820529       1.01915623       4.93641459       14       0.00002449       0.00010968       0.00021361 
Si       3.58153749       4.67058655       1.61097477       14      -0.00002449      -0.00010968       0.00021361 
Si       3.86402763       0.73666610      -0.05174513       14       0.00010968      -0.00002449       0.00021361 
Si       4.67058655       3.58153749       5.03990485       14      -0.00010968      -0.00002449      -0.00021361 
Si       4.95307669       1.82571516       3.37718494       14       0.00002449      -0.00010968      -0.00021361 
12
Lattice="5.7181033001772175 -1.0898701164166781e-35 1.161275334226276e-19 -1.1216078875225594e-35 5.718103300177216 -4.604085301884369e-18 1.5197457400732269e-19 -5.048676132635471e-18 6.738028376781095" Properties=species:S:1:pos:R:3:Z:I:1:forces:R:3 cutoff=-1.0 stress="0.04251911964748673 -3.934814135331029e-55 3.7012659192911297e-22 -3.934814135331029e-55 0.04251911964748677 3.630022781126318e-58 3.7012659192911297e-22 3.630022781126318e-58 0.042439404393807174" Minim_Constant_Volume=T nneightol=1.2 pbc="T T T" energy=-1955.41876671 Minim_Hydrostatic_Strain=F
Si       0.54627815       0.54627815       0.00000000       14      -0.00082534      -0.00082534      -0.00000000 
Si      -0.54627815      -0.54627815       3.36901419       14       0.00082534       0.00082534      -0.00000000 
Si       2.31277349       3.40532981       5.05352129       14       0.00082534      -0.00082534       0.00000000 
Si       3.40532981       2.31277349       1.68450709       14      -0.00082534       0.00082534      -0.00000000 
Si       0.73710960       3.87231968       0.02861558       14      -0.00129427      -0.00099285      -0.00063855 
Si       1.01326802       2.12194205       1.71312267       14      -0.00099285       0.00129427      -0.00063855 
Si       1.84578362       4.98099370       3.34039861       14       0.00099285       0.00129427       0.00063855 
Si       2.12194205       1.01326802       5.02490571       14       0.00129427      -0.00099285       0.00063855 
Si       3.59616125       4.70483528       1.65589151       14      -0.00129427       0.00099285       0.00063855 
Si       3.87231968       0.73710960      -0.02861558       14      -0.00099285      -0.00129427       0.00063855 
Si       4.70483528       3.59616125       5.08213686       14       0.00099285      -0.00129427      -0.00063855 
Si       4.98099370       1.84578362       3.39762976       14       0.00129427       0.00099285      -0.00063855 
12
Lattice="5.742511331460355 -8.512238421063397e-36 1.0172139502027023e-19 -1.0167642887046869e-35 5.74251133146035 5.909416223511792e-17 1.337797477098104e-19 6.95443200399465e-17 6.8325668232101116" Properties=species:S:1:pos:R:3:Z:I:1:forces:R:3 cutoff=-1.0 stress="0.04553590246820144 -9.840289061505704e-38 3.730449483751844e-22 -9.840289061505704e-38 0.045535902468201495 -1.2053510212979656e-17 3.730449483751844e-22 -1.2053510212979656e-17 0.04562378245252406" Minim_Constant_Volume=T nneightol=1.2 pbc="T T T" energy=-1955.19827979 Minim_Hydrostatic_Strain=F
Si       0.53043869       0.53043869       0.00000000       14      -0.00086889      -0.00086889       0.00000000 
Si      -0.53043869      -0.53043869       3.41628342       14       0.00086889       0.00086889       0.00000000 
Si       2.34081697       3.40169436       5.12442512       14       0.00086889      -0.00086889      -0.00000000 
Si       3.40169436       2.34081697       1.70814170       14      -0.00086889       0.00086889       0.00000000 
Si       0.73697300       3.87200140      -0.00339440       14      -0.00042285       0.00078964      -0.00100531 
Si       1.00074573       2.13428266       1.70474731       14       0.00078964       0.00042285      -0.00100531 
Si       1.87050993       5.00553834       3.41967781       14      -0.00078964       0.00042285       0.00100531 
Si       2.13428266       1.00074573       5.12781952       14       0.00042285       0.00078964       0.00100531 
Si       3.60822867       4.74176560       1.71153610       14      -0.00042285      -0.00078964       0.00100531 
Si       3.87200140       0.73697300       0.00339440       14       0.00078964      -0.00042285       0.00100531 
Si       4.74176560       3.60822867       5.12103072       14      -0.00078964      -0.00042285      -0.00100531 
Si       5.00553834       1.87050993       3.41288901       14       0.00042285      -0.00078964      -0.00100531 
12
Lattice="5.769583642727731 -8.246984284252177e-36 8.183956919453551e-20 -9.962675746357961e-36 5.7695836427277225 4.558796476481069e-17 1.0932250265519106e-19 5.249925122452524e-17 6.91916538805636" Properties=species:S:1:pos:R:3:Z:I:1:forces:R:3 cutoff=-1.0 stress="0.047440164661024284 -2.9287143067196495e-38 3.280461347726327e-22 -2.9287143067196495e-38 0.04744016466102442 -2.471195632334756e-18 3.280461347726327e-22 -2.471195632334756e-18 0.047422308598040655" Minim_Constant_Volume=T nneightol=1.2 pbc="T T T" energy=-1954.96499386 Minim_Hydrostatic_Strain=F
Si       0.51407059       0.51407059       0.00000000       14       0.00071939       0.00071939       0.00000000 
Si      -0.51407059      -0.51407059       3.45958270       14      -0.00071939      -0.00071939      -0.00000000 
Si       2.37072122       3.39886242       5.18937404       14      -0.00071939       0.00071939       0.00000000 
Si       3.39886242       2.37072122       1.72979134       14       0.00071939      -0.00071939      -0.00000000 
Si       0.73589956       3.87422156      -0.03910735       14      -0.00011390      -0.00122459       0.00014917 
Si       0.98942973       2.14889225       1.69068399       14      -0.00122459       0.00011390       0.00014917 
Si       1.89536208       5.03368408       3.49869005       14       0.00122459       0.00011390      -0.00014917 
Si       2.14889225       0.98942973       5.22848140       14       0.00011390      -0.00122459      -0.00014917 
Si       3.62069139       4.78015391       1.76889870       14      -0.00011390       0.00122459      -0.00014917 
Si       3.87422156       0.73589956       0.03910735       14      -0.00122459      -0.00011390      -0.00014917 
Si       4.78015391       3.62069139       5.15026669       14       0.00122459      -0.00011390       0.00014917 
Si       5.03368408       1.89536208       3.42047534       14       0.00011390       0.00122459       0.00014917 
