2
Lattice="3.3817555099654393 -4.97729669102154e-18 -2.2244286840184607e-33 -1.690877754982719 2.92868618101807 1.0361950815408451e-32 -2.2370974767033387e-33 1.0750225888024683e-32 3.361981466143976" Properties=species:S:1:pos:R:3:Z:I:1:forces:R:3 stress="2.901718770086523e-05 9.4301379747829e-22 1.8068381453802487e-33 9.4301379747829e-22 2.9017187700865203e-05 7.719517044171251e-33 1.8068381453802487e-33 7.719517044171251e-33 -1.4443792378207157e-05" energy=-325.575666154 Minim_Constant_Volume=T Minim_Hydrostatic_Strain=F pbc="T T T"
Si      -0.00000000       0.00000000       0.00000000       14      -0.00000000       0.00000000      -0.00000000 
Si      -0.00000000       1.95245745       1.68099073       14      -0.00000000       0.00000000       0.00000000 
2
Lattice="3.3418927527910625 -4.608567131517139e-17 1.341023842042425e-32 -1.6709463763955306 2.8941640206401695 1.0790197452031504e-32 1.3328901387426967e-32 2.0106381951957214e-32 3.3564809611576814" Properties=species:S:1:pos:R:3:Z:I:1:forces:R:3 stress="-0.032454378672664895 3.4539437117687464e-18 1.65204746667414e-34 3.4539437117687464e-18 -0.03245437867266485 1.3653970137846263e-32 1.65204746667414e-34 1.3653970137846263e-32 -0.03246044661807885" energy=-325.56178386 Minim_Constant_Volume=T Minim_Hydrostatic_Strain=F pbc="T T T"
Si      -0.00000000       0.00000000       0.00000000       14       0.00000000      -0.00000000      -0.00000000 
Si      -0.00000000       1.92944268       1.67824048       14      -0.00000000       0.00000000       0.00000000 
2
Lattice="3.2952753229771887 -4.139823771814478e-17 1.237446649714241e-32 -1.6476376614885937 2.8537921421622165 -2.866303699079934e-32 1.2074797128788965e-32 -2.657224206122029e-32 3.3634289411073324" Properties=species:S:1:pos:R:3:Z:I:1:forces:R:3 stress="-0.05722030758967635 3.307276509525823e-19 1.2052848068139678e-33 3.307276509525823e-19 -0.057220307589676375 1.3627647167012128e-33 1.2052848068139678e-33 1.3627647167012128e-33 -0.057251627686373686" energy=-325.523712602 Minim_Constant_Volume=T Minim_Hydrostatic_Strain=F pbc="T T T"
Si      -0.00000000       0.00000000       0.00000000       14      -0.00000000       0.00000000      -0.00000000 
Si      -0.00000000       1.90252809       1.68171447       14       0.00000000      -0.00000000       0.00000000 
2
Lattice="3.243481778799279 -3.21630838865945e-17 1.0885150713759445e-32 -1.6217408893996388 2.808937617152115 -3.4820256609635184e-32 1.0302108390217229e-32 -3.4157345401564297e-32 3.3801482969498924" Properties=species:S:1:pos:R:3:Z:I:1:forces:R:3 stress="-0.07225017723190524 7.5701758409415005e-19 3.197313167426136e-33 7.5701758409415005e-19 -0.07225017723190517 4.677118186508697e-33 3.197313167426136e-33 4.677118186508697e-33 -0.07227044396914252" energy=-325.469102948 Minim_Constant_Volume=T Minim_Hydrostatic_Strain=F pbc="T T T"
Si      -0.00000000       0.00000000       0.00000000       14       0.00000000       0.00000000      -0.00000000 
Si      -0.00000000       1.87262508       1.69007415       14      -0.00000000      -0.00000000       0.00000000 
2
Lattice="3.1900332682534396 -3.421049017400427e-17 -3.833245181934726e-32 -1.5950166341267191 2.762649849224978 -5.674894991286256e-32 -4.1225174962126676e-32 -8.93896110981275e-32 3.399842735622905" Properties=species:S:1:pos:R:3:Z:I:1:forces:R:3 stress="-0.08131717686498663 1.6485198671480902e-18 -3.5753392694615694e-33 1.6485198671480902e-18 -0.08131717686498646 -2.0276875492318017e-33 -3.5753392694615694e-33 -2.0276875492318017e-33 -0.08129685929453684" energy=-325.404959384 Minim_Constant_Volume=T Minim_Hydrostatic_Strain=F pbc="T T T"
Si      -0.00000000       0.00000000       0.00000000       14      -0.00000000      -0.00000000       0.00000000 
Si      -0.00000000       1.84176657       1.69992137       14       0.00000000       0.00000000      -0.00000000 
2
Lattice="3.137753147826781 -9.135531166392677e-17 -2.203938115050807e-32 -1.56887657391339 2.7173739368225815 -8.882092525930751e-32 -2.2984510355061594e-32 -1.1691016539013868e-31 3.4165176894852207" Properties=species:S:1:pos:R:3:Z:I:1:forces:R:3 stress="-0.09124904979158584 -2.1890633345603454e-18 2.1271798357794956e-33 -2.1890633345603454e-18 -0.09124904979158578 -7.332363987353442e-33 2.1271798357794956e-33 -7.332363987353442e-33 -0.09118339199628588" energy=-325.333465838 Minim_Constant_Volume=T Minim_Hydrostatic_Strain=F pbc="T T T"
Si      -0.00000000       0.00000000       0.00000000       14       0.00000000      -0.00000000       0.00000000 
Si      -0.00000000       1.81158262       1.70825884       14      -0.00000000       0.00000000       0.00000000 
2
Lattice="3.415147234247152 6.800770291425257e-18 -7.57515064015128e-33 -1.7075736171235754 2.957604262522199 -2.015258846313995e-32 -7.567461971177303e-33 -2.7297511356771045e-32 3.3789472111468335" Properties=species:S:1:pos:R:3:Z:I:1:forces:R:3 stress="0.0347000482730452 -1.1049520413324501e-17 -9.064323895160766e-35 -1.1049520413324501e-17 0.03470004827304519 -3.4360241054167116e-33 -9.064323895160766e-35 -3.4360241054167116e-33 0.03469395647675558" energy=-325.561168984 Minim_Constant_Volume=T Minim_Hydrostatic_Strain=F pbc="T T T"
Si      -0.00000000       0.00000000      -0.00000000       14       0.00000000      -0.00000000       0.00000000 
Si      -0.00000000       1.97173618       1.68947361       14      -0.00000000       0.00000000      -0.00000000 
2
Lattice="3.4435602632339357 2.1369561916816272e-16 -7.009159860356945e-33 -1.721780131616967 2.982210667423217 1.7612570096720562e-34 -7.013746926493429e-33 -3.76969625499712e-33 3.404501812240794" Properties=species:S:1:pos:R:3:Z:I:1:forces:R:3 stress="0.06609013087521289 -2.298950284595142e-17 3.126600355811534e-34 -2.298950284595142e-17 0.06609013087521284 2.6827293719333456e-34 3.126600355811534e-34 2.6827293719333456e-34 0.06606146169880596" energy=-325.518814881 Minim_Constant_Volume=T Minim_Hydrostatic_Strain=F pbc="T T T"
Si      -0.00000000       0.00000000       0.00000000       14       0.00000000       0.00000000       0.00000000 
Si       0.00000000       1.98814044       1.70225091       14       0.00000000       0.00000000      -0.00000000 
2
Lattice="3.467970716950314 2.5727452401553237e-16 -1.3600011261702786e-32 -1.7339853584751561 3.0033507404595055 -1.0170548753402279e-32 -1.3514104494194188e-32 -1.9334394650012564e-32 3.4366599128353816" Properties=species:S:1:pos:R:3:Z:I:1:forces:R:3 stress="0.09000189207701137 -1.687404468757392e-17 3.911005988115707e-33 -1.687404468757392e-17 0.09000189207701127 -8.811807055519543e-34 3.911005988115707e-33 -8.811807055519543e-34 0.08995643001744762" energy=-325.453238227 Minim_Constant_Volume=T Minim_Hydrostatic_Strain=F pbc="T T T"
Si      -0.00000000       0.00000000       0.00000000       14       0.00000000       0.00000000       0.00000000 
Si       0.00000000       2.00223383       1.71832996       14       0.00000000       0.00000000       0.00000000 
2
Lattice="3.4888258522073015 2.5212677038607765e-16 -1.4579229670759458e-32 -1.7444129261036498 3.0214118173914173 6.244150921285958e-33 -1.4416795547143243e-32 -1.0133519026186454e-33 3.4746431895693695" Properties=species:S:1:pos:R:3:Z:I:1:forces:R:3 stress="0.10385670371418584 -1.851703769164156e-17 1.2478225048056322e-33 -1.851703769164156e-17 0.1038567037141857 1.172298446581727e-33 1.2478225048056322e-33 1.172298446581727e-33 0.1037953581784813" energy=-325.371836799 Minim_Constant_Volume=T Minim_Hydrostatic_Strain=F pbc="T T T"
Si      -0.00000000       0.00000000       0.00000000       14       0.00000000       0.00000000       0.00000000 
Si       0.00000000       2.01427454       1.73732159       14      -0.00000000      -0.00000000       0.00000000 
2
Lattice="3.5053299036823704 1.6797815007291304e-16 -2.116073324908543e-32 -1.7526649518411843 3.0357047452341934 4.4121550428558966e-33 -2.0849466188774188e-32 -6.893583205746195e-33 3.5201767673445254" Properties=species:S:1:pos:R:3:Z:I:1:forces:R:3 stress="0.10611469439644793 -2.0434744330775945e-18 1.0108861565107291e-33 -2.0434744330775945e-18 0.1061146943964478 -3.2148021062075067e-34 1.0108861565107291e-33 -3.2148021062075067e-34 0.10608462620781536" energy=-325.283679413 Minim_Constant_Volume=T Minim_Hydrostatic_Strain=F pbc="T T T"
Si      -0.00000000       0.00000000       0.00000000       14       0.00000000      -0.00000000      -0.00000000 
Si       0.00000000       2.02380316       1.76008838       14      -0.00000000       0.00000000      -0.00000000 
2
Lattice="3.519527152596479 1.6386304556612497e-17 -5.694331618518062e-32 -1.7597635762982389 3.0479999234576627 -8.01915186536594e-32 -5.657092008720328e-32 -1.2567376140087727e-31 3.5693972562091822" Properties=species:S:1:pos:R:3:Z:I:1:forces:R:3 stress="0.09997778404448261 -5.870353806299876e-17 7.55483542871744e-34 -5.870353806299876e-17 0.09997778404448247 1.2105956179038502e-32 7.55483542871744e-34 1.2105956179038502e-32 0.10001607191655679" energy=-325.198296362 Minim_Constant_Volume=T Minim_Hydrostatic_Strain=F pbc="T T T"
Si      -0.00000000       0.00000000       0.00000000       14      -0.00000000      -0.00000000      -0.00000000 
Si       0.00000000       2.03199995       1.78469863       14      -0.00000000       0.00000000      -0.00000000 
