48
Lattice="3.8400470141510277 2.5840649439412817e-05 2.6780913623408177e-05 5.788693214020806e-05 9.541770730255859 -3.11008301367534e-05 0.00020162448709975047 -0.00011636569227928536 26.981682856400564" Properties=species:S:1:pos:R:3:frac_pos:R:3:force:R:3:Z:I:1:forces:R:3 cutoff=-1.0 stress="1.527467847241855e-05 8.84707992065007e-06 1.3055804745516567e-05 8.84707992065007e-06 0.00020940001362253473 7.949533060188076e-08 1.3055804745516567e-05 7.949533060188076e-08 5.086359383746963e-05" castep_run_time=16556.15 nneightol=1.2 pbc="T T T" virial="-0.00551755 -0.07779315 -0.02924855 -0.07779315 -0.00290948 0.03650687 -0.02924855 0.03650687 0.00710454" energy=-7828.09090446 castep_file_name=gb.castep enthalpy=-8203.6092
Si       0.48922328      -0.37838628      -0.10279310       0.12632300      -0.04614800      -0.00419800       0.00425000      -0.00416000      -0.00128000       14       0.00213694      -0.00537849      -0.00013256 
Si       0.48966349       0.39723204      11.01162052       0.12631900       0.04711100       0.40806200      -0.00437000       0.00397000       0.00126000       14       0.00316017       0.00331970      -0.00036259 
Si       0.48949702       2.73242756      10.83097550       0.12676900       0.29388300       0.39927600      -0.00212000       0.00161000      -0.00180000       14       0.00199979      -0.00195301       0.00071461 
Si       0.49073660       3.64528804       8.67608411       0.12647200       0.38092400       0.31961400      -0.00525000      -0.00367000       0.00111000       14      -0.00081201      -0.00087679       0.00723047 
Si       0.48993787       6.00353712       8.85099022       0.12601600       0.62822800       0.32808600       0.00502000       0.00088000      -0.00109000       14       0.00112538      -0.00168825      -0.00175937 
Si       0.49009455       6.78362388       6.61832094       0.12613800       0.71040100       0.24609700      -0.00406000       0.00055000       0.00678000       14      -0.00293863       0.00063159       0.00384458 
Si       0.49006665      -0.38951436       6.57388543       0.12625800      -0.04114800       0.24314200       0.00486000       0.00182000       0.00138000       14      -0.00198332       0.00404786       0.00075982 
Si       0.48993099       0.40827533       4.33464226       0.12650300       0.04205000       0.16071300      -0.00563000      -0.00156000      -0.00131000       14      -0.00121537      -0.00385306       0.00050932 
Si       0.48986027       2.77693956       4.29007653       0.12648700       0.29050500       0.15777700       0.00416000      -0.00033000      -0.00702000       14       0.00141531       0.00071264      -0.00043706 
Si       0.49087878       3.55680858       2.05750051       0.12658500       0.37270300       0.07579100      -0.00481000      -0.00091000       0.00085000       14      -0.00024826       0.00190478       0.00115227 
Si       0.48924579       5.91500471       2.23244069       0.12612700       0.62000700       0.08425300       0.00557000       0.00361000      -0.00136000       14       0.00162013       0.00109046      -0.00746062 
Si       0.48927964       6.82804823       0.07765652       0.12592900       0.70708000       0.00459000       0.00056000      -0.00188000       0.00211000       14      -0.00132528       0.00372902       0.00015124 
Si       2.40996305      -0.44739215       9.96507262       0.62622000      -0.04202400       0.36831800       0.00541000      -0.00122000       0.00155000       14      -0.00282719      -0.00224066      -0.00346396 
Si       2.40992076       0.39198295       7.72048219       0.62633400       0.04174100       0.28537400      -0.00473000       0.00379000       0.00720000       14       0.00237415      -0.00285852       0.00410683 
Si       2.41078730       2.77638414       7.62048255       0.62639000       0.29131600       0.28035700       0.00482000      -0.00169000       0.00246000       14      -0.00104911      -0.00196150      -0.00273217 
Si       2.41001561       3.58958147       5.40472779       0.62654800       0.37578100       0.19901300      -0.00546000       0.00152000       0.00436000       14      -0.00139120      -0.00141482      -0.00542667 
Si       2.40981498       5.97127409       5.50405122       0.62607300       0.62513900       0.20485800       0.00568000      -0.00135000      -0.00449000       14       0.00284732      -0.00104115       0.00193375 
Si       2.40931299       6.78396611       3.28797677       0.62621100       0.70960100       0.12351400      -0.00451000       0.00183000      -0.00242000       14       0.00011465       0.00174477       0.00461621 
Si       2.40981520      -0.37344444       3.18835390       0.62641800      -0.04082900       0.11847900       0.00407000      -0.00347000      -0.00700000       14       0.00108824       0.00343427      -0.00540990 
Si       2.40947737       0.46593061       0.94379189       0.62643100       0.04298500       0.03554200      -0.00547000       0.00112000      -0.00149000       14      -0.00171839       0.00346033       0.00381833 
Si       2.41097691       2.81481346       0.87832920       0.62653200       0.29193600       0.03214900       0.00248000       0.00112000       0.00315000       14      -0.00131350       0.00006525      -0.00071671 
Si       2.40989635       3.45538535      12.19986856       0.62675900       0.37124600       0.45193900      -0.00260000      -0.00237000       0.00014000       14      -0.00274512       0.00059555      -0.00054949 
Si       2.41013853       5.80681494      12.19992279       0.62587900       0.61611200       0.45194000       0.00145000       0.00174000      -0.00164000       14       0.00010624      -0.00270877      -0.00015018 
Si       2.41001521       6.74551144      10.03026434       0.62607100       0.70902600       0.37171700      -0.00234000      -0.00134000      -0.00314000       14      -0.00101202       0.00030151       0.00053969 
Si       0.48977727       0.39733482      13.38781432       0.12623400       0.04710800       0.49581400      -0.00203000       0.00328000      -0.00041000       14      -0.00049686       0.00464142       0.00139156 
Si       0.48969840       2.73268658      13.56853602       0.12666400       0.29387800       0.50460500      -0.00075000       0.00122000      -0.00022000       14       0.00095027      -0.00455511      -0.00136676 
Si       0.48938717       3.64552563      15.72328872       0.12639800       0.38092700       0.58426000      -0.00288000      -0.00398000       0.00212000       14      -0.00001158      -0.00119450      -0.00607448 
Si       0.48964377       6.00371742      15.54830697       0.12601200       0.62822700       0.57580100       0.00277000       0.00127000      -0.00175000       14      -0.00137987      -0.00160751       0.00352612 
Si       0.48957630       6.78355174      17.78104581       0.12609300       0.71042500       0.65777900      -0.00194000      -0.00051000      -0.00396000       14       0.00104436       0.00091389      -0.00337572 
Si       0.48949124       9.15223257      17.82566317       0.12607300       0.95886800       0.66072100       0.00347000       0.00244000      -0.00406000       14       0.00137130       0.00354102       0.00102122 
Si       0.48990210       0.40815750      20.06516322       0.12630200       0.04207900       0.74313900      -0.00267000      -0.00267000       0.00411000       14      -0.00196361      -0.00179734      -0.00293755 
Si       0.48948257       2.77695958      20.10920082       0.12643900       0.29052200       0.74609700       0.00179000       0.00027000       0.00384000       14       0.00078168      -0.00107498       0.00321574 
Si       0.49017686       3.55685001      22.34181969       0.12654900       0.37271300       0.82807500      -0.00296000      -0.00100000       0.00172000       14       0.00067718       0.00237957      -0.00161857 
Si       0.48982015       5.91511317      22.16704913       0.12615000       0.62001000       0.81961100       0.00260000       0.00385000      -0.00210000       14      -0.00309081       0.00073836       0.00660391 
Si       0.48917144       6.82793509      24.32186509       0.12584900       0.70708600       0.89926200       0.00224000      -0.00093000       0.00015000       14      -0.00021087       0.00380143       0.00105903 
Si       0.48974833       9.16319381      24.50271523       0.12628300       0.95385500       0.90805200       0.00222000      -0.00331000       0.00047000       14      -0.00137077      -0.00287845      -0.00212584 
Si       2.40783220       3.75395408      25.69056216       0.62680500       0.38484600       0.95192500      -0.00160000      -0.00144000       0.00162000       14      -0.00101216       0.00125171       0.00022924 
Si       2.40903433       6.10528998      25.69070687       0.62585100       0.62971700       0.95192600       0.00260000       0.00171000      -0.00045000       14       0.00316130      -0.00058898      -0.00054669 
Si       2.40958032       6.74593215      14.36945894       0.62604100       0.70901100       0.53215700      -0.00054000      -0.00160000       0.00603000       14       0.00123591      -0.00013273      -0.00257531 
Si       2.40981569       9.09478676      14.43458963       0.62615300       0.95795600       0.53555400       0.00331000      -0.00050000      -0.00370000       14       0.00017654      -0.00291912       0.00303783 
Si       2.40955033       0.39203663      16.67927938       0.62612500       0.04175500       0.61848500      -0.00180000       0.00262000      -0.00446000       14      -0.00096616      -0.00020036      -0.00474901 
Si       2.40937704       2.77669877      16.77904299       0.62634800       0.29131700       0.62352500       0.00215000      -0.00079000      -0.00543000       14       0.00070407      -0.00326756       0.00374982 
Si       2.40953846       3.58965695      18.99503736       0.62647200       0.37579900       0.70485600      -0.00332000       0.00098000      -0.00112000       14      -0.00049952      -0.00075369       0.00178527 
Si       2.40969137       5.97130105      18.89546245       0.62606400       0.62514900       0.69901800       0.00310000      -0.00084000       0.00117000       14      -0.00124460      -0.00022961      -0.00139260 
Si       2.40955181       6.78417739      21.11154187       0.62619600       0.70962200       0.78035100      -0.00245000       0.00097000       0.00562000       14       0.00347294       0.00210654      -0.00430612 
Si       2.40985783       9.16865788      21.21151906       0.62625800       0.95918500       0.78537400       0.00251000      -0.00284000       0.00459000       14       0.00116150       0.00098701       0.00565019 
Si       2.40967975       0.46616426      23.45610059       0.62635200       0.04298400       0.86830600      -0.00322000       0.00070000       0.00378000       14       0.00076442       0.00122289      -0.00226097 
Si       2.41028019       2.81494796      23.52101940       0.62652300       0.29192700       0.87171200       0.00041000       0.00150000      -0.00588000       14      -0.00066361       0.00055337       0.00128381 
