2
Lattice="3.2804016904033038 6.819145989348129e-36 8.00535119496499e-36 6.819145989348129e-36 3.2804016904033038 2.497210980896322e-21 8.00535119496499e-36 2.497210980896322e-21 3.2804016904033038" Properties=species:S:1:pos:R:3:Z:I:1:forces:R:3 stress="1.9115866532910082e-05 -6.144617538198872e-42 4.666759644919978e-56 -6.144617538198872e-42 1.9115866532910096e-05 -7.63328582953548e-23 4.666759644919978e-56 -7.63328582953548e-23 1.91158665329101e-05" energy=-12.0013123142 Minim_Constant_Volume=T Minim_Hydrostatic_Strain=F pbc="T T T"
Ti       0.00000000      -0.00000000       0.00000000       22       0.00000000       0.00000000       0.00000000 
Ti       1.64020085       1.64020085       1.64020085       22       0.00000000       0.00000000       0.00000000 
2
Lattice="3.252833986290569 6.761839532188982e-36 7.938076155537063e-36 6.761839532188982e-36 3.252833986290569 2.4762250224907347e-21 7.938076155537063e-36 2.4762250224907347e-21 3.252833986290569" Properties=species:S:1:pos:R:3:Z:I:1:forces:R:3 stress="-0.015445259915204618 0.0 -1.7592003554751503e-54 0.0 -0.015445259915204623 -1.3944641657845088e-18 -1.7592003554751503e-54 -1.3944641657845088e-18 -0.015445259915204623" energy=-11.9947855359 Minim_Constant_Volume=T Minim_Hydrostatic_Strain=F pbc="T T T"
Ti       0.00000000      -0.00000000       0.00000000       22      -0.00000000      -0.00000000      -0.00000000 
Ti       1.62641699       1.62641699       1.62641699       22       0.00000000      -0.00000000       0.00000000 
2
Lattice="3.2247909185481727 6.703544911294225e-36 7.86964105915273e-36 6.703544911294225e-36 3.2247909185481727 2.454877192769393e-21 7.86964105915273e-36 2.454877192769393e-21 3.2247909185481727" Properties=species:S:1:pos:R:3:Z:I:1:forces:R:3 stress="-0.032458505635770796 -6.323081133290046e-41 -3.9111220045551298e-53 -6.323081133290046e-41 -0.03245850563577081 8.715686023220569e-18 -3.9111220045551298e-53 8.715686023220569e-18 -0.0324585056357708" energy=-11.9737011085 Minim_Constant_Volume=T Minim_Hydrostatic_Strain=F pbc="T T T"
Ti       0.00000000      -0.00000000       0.00000000       22       0.00000000       0.00000000       0.00000000 
Ti       1.61239546       1.61239546       1.61239546       22       0.00000000       0.00000000       0.00000000 
2
Lattice="3.196251449086882 6.644218393665478e-36 7.799994565363879e-36 6.644218393665478e-36 3.196251449086882 2.433151476453557e-21 7.799994565363879e-36 2.433151476453557e-21 3.196251449086882" Properties=species:S:1:pos:R:3:Z:I:1:forces:R:3 stress="-0.05003811583360931 1.2568034109875828e-35 1.2282292367570606e-35 1.2568034109875828e-35 -0.05003811583360936 -1.100047760928157e-17 1.2282292367570606e-35 -1.100047760928157e-17 -0.05003811583360935" energy=-11.9373278815 Minim_Constant_Volume=T Minim_Hydrostatic_Strain=F pbc="T T T"
Ti       0.00000000      -0.00000000       0.00000000       22       0.00000000       0.00000000       0.00000000 
Ti       1.59812572       1.59812572       1.59812572       22       0.00000000       0.00000000       0.00000000 
2
Lattice="3.1671930093267533 6.583813064791672e-36 7.72908159877869e-36 6.583813064791672e-36 3.1671930093267533 2.411030693176011e-21 7.72908159877869e-36 2.411030693176011e-21 3.1671930093267533" Properties=species:S:1:pos:R:3:Z:I:1:forces:R:3 stress="-0.0678003511424248 -1.7741760277789237e-40 -5.991173178652916e-54 -1.7741760277789237e-40 -0.0678003511424248 1.4439360744663052e-17 -5.991173178652916e-54 1.4439360744663052e-17 -0.06780035114242483" energy=-11.8853346824 Minim_Constant_Volume=T Minim_Hydrostatic_Strain=F pbc="T T T"
Ti       0.00000000      -0.00000000       0.00000000       22       0.00000000      -0.00000000       0.00000000 
Ti       1.58359650       1.58359650       1.58359650       22      -0.00000000      -0.00000000       0.00000000 
2
Lattice="3.137591342795868 6.522278501450654e-36 7.656842964946368e-36 6.522278501450654e-36 3.137591342795868 2.3884963776590996e-21 7.656842964946368e-36 2.3884963776590996e-21 3.137591342795868" Properties=species:S:1:pos:R:3:Z:I:1:forces:R:3 stress="-0.08587230026091174 2.0867789787209305e-34 1.8503234051724992e-50 2.0867789787209305e-34 -0.08587230026091167 7.072743112268023e-18 1.8503234051724992e-50 7.072743112268023e-18 -0.0858723002609117" energy=-11.8175443762 Minim_Constant_Volume=T Minim_Hydrostatic_Strain=F pbc="T T T"
Ti       0.00000000      -0.00000000       0.00000000       22       0.00000000      -0.00000000      -0.00000000 
Ti       1.56879567       1.56879567       1.56879567       22      -0.00000000       0.00000000      -0.00000000 
2
Lattice="3.307513677666947 6.875505123582511e-36 8.071514122594807e-36 6.875505123582511e-36 3.307513677666947 2.517850024128972e-21 8.071514122594807e-36 2.517850024128972e-21 3.307513677666947" Properties=species:S:1:pos:R:3:Z:I:1:forces:R:3 stress="0.013395091226325312 -9.389358381946929e-35 1.4084037572920394e-34 -9.389358381946929e-35 0.013395091226325317 2.7010854840207807e-18 1.4084037572920394e-34 2.7010854840207807e-18 0.013395091226325317" energy=-11.9953917715 Minim_Constant_Volume=T Minim_Hydrostatic_Strain=F pbc="T T T"
Ti       0.00000000      -0.00000000       0.00000000       22       0.00000000       0.00000000       0.00000000 
Ti       1.65375684       1.65375684       1.65375684       22      -0.00000000      -0.00000000      -0.00000000 
2
Lattice="3.334188327015205 6.930955140162058e-36 8.13660978958585e-36 6.930955140162058e-36 3.334188327015205 2.5381561431810684e-21 8.13660978958585e-36 2.5381561431810684e-21 3.334188327015205" Properties=species:S:1:pos:R:3:Z:I:1:forces:R:3 stress="0.027121060472664348 1.4250337715862566e-40 1.7623373379133118e-40 1.4250337715862566e-40 0.027121060472664344 -2.509845754678799e-18 1.7623373379133118e-40 -2.509845754678799e-18 0.027121060472664334" energy=-11.9775541124 Minim_Constant_Volume=T Minim_Hydrostatic_Strain=F pbc="T T T"
Ti       0.00000000      -0.00000000       0.00000000       22      -0.00000000      -0.00000000      -0.00000000 
Ti       1.66709416       1.66709416       1.66709416       22      -0.00000000       0.00000000       0.00000000 
2
Lattice="3.360442859381679 6.985531837160114e-36 8.200680221163807e-36 6.985531837160114e-36 3.360442859381679 2.5581424475155832e-21 8.200680221163807e-36 2.5581424475155832e-21 3.360442859381679" Properties=species:S:1:pos:R:3:Z:I:1:forces:R:3 stress="0.04117678044954103 5.684944127223243e-36 5.507289623247515e-36 5.684944127223243e-36 0.04117678044954104 2.975555421917285e-17 5.507289623247515e-36 2.975555421917285e-17 0.041176780449541026" energy=-11.9474164662 Minim_Constant_Volume=T Minim_Hydrostatic_Strain=F pbc="T T T"
Ti       0.00000000      -0.00000000       0.00000000       22      -0.00000000       0.00000000      -0.00000000 
Ti       1.68022143       1.68022143       1.68022143       22       0.00000000      -0.00000000      -0.00000000 
2
Lattice="3.3862934357127847 7.03926880919811e-36 8.263764855807226e-36 7.03926880919811e-36 3.3862934357127847 2.5778212396785633e-21 8.263764855807226e-36 2.5778212396785633e-21 3.3862934357127847" Properties=species:S:1:pos:R:3:Z:I:1:forces:R:3 stress="0.054667157759466074 1.3996197498037084e-36 1.8188906074719578e-36 1.3996197498037084e-36 0.05466715775946608 1.8805447531522393e-17 1.8188906074719578e-36 1.8805447531522393e-17 0.0546671577594661" energy=-11.9050399751 Minim_Constant_Volume=T Minim_Hydrostatic_Strain=F pbc="T T T"
Ti       0.00000000      -0.00000000       0.00000000       22       0.00000000       0.00000000       0.00000000 
Ti       1.69314672       1.69314672       1.69314672       22       0.00000000       0.00000000       0.00000000 
2
Lattice="3.4117552446600166 7.092197629736157e-36 8.325900759247952e-36 7.092197629736157e-36 3.4117552446600166 2.5972040820550084e-21 8.325900759247952e-36 2.5972040820550084e-21 3.4117552446600166" Properties=species:S:1:pos:R:3:Z:I:1:forces:R:3 stress="0.06644822750125837 8.824365294329508e-35 2.206091323582378e-35 8.824365294329508e-35 0.06644822750125837 6.292330231188476e-18 2.206091323582378e-35 6.292330231188476e-18 0.06644822750125837" energy=-11.8514339284 Minim_Constant_Volume=T Minim_Hydrostatic_Strain=F pbc="T T T"
Ti       0.00000000      -0.00000000       0.00000000       22      -0.00000000      -0.00000000      -0.00000000 
Ti       1.70587762       1.70587762       1.70587762       22      -0.00000000       0.00000000       0.00000000 
2
Lattice="3.4368425812421535 7.144348014592372e-36 8.387122816434982e-36 7.144348014592372e-36 3.4368425812421535 2.6163018567505984e-21 8.387122816434982e-36 2.6163018567505984e-21 3.4368425812421535" Properties=species:S:1:pos:R:3:Z:I:1:forces:R:3 stress="0.07570583683429782 2.1740020101082246e-34 4.348004020216451e-35 2.1740020101082246e-34 0.07570583683429782 1.1994091980710241e-17 4.348004020216451e-35 1.1994091980710241e-17 0.07570583683429785" energy=-11.7885061158 Minim_Constant_Volume=T Minim_Hydrostatic_Strain=F pbc="T T T"
Ti       0.00000000      -0.00000000       0.00000000       22       0.00000000      -0.00000000       0.00000000 
Ti       1.71842129       1.71842129       1.71842129       22       0.00000000       0.00000000       0.00000000 
