4
Lattice="3.9650837414753193 1.5323081402530977e-29 0.0 1.5323081402530977e-29 3.9650837414753193 -1.915385175316372e-29 0.0 -1.915385175316372e-29 3.9650837414753193" Properties=species:S:1:pos:R:3:Z:I:1:forces:R:3 stress="-5.253855584533988e-06 5.480553050553948e-28 2.912197528475433e-57 5.480553050553948e-28 -5.253855584533989e-06 6.850691313192435e-29 2.912197528475433e-57 6.850691313192435e-29 -5.253855584533988e-06" energy=-650.928083806 Minim_Constant_Volume=T Minim_Hydrostatic_Strain=F pbc="T T T"
Si       0.00000000       0.00000000       0.00000000       14       0.00000000       0.00000000       0.00000000 
Si       1.98254187       1.98254187      -0.00000000       14       0.00000000       0.00000000       0.00000000 
Si       1.98254187      -0.00000000       1.98254187       14       0.00000000       0.00000000       0.00000000 
Si       0.00000000       1.98254187       1.98254187       14       0.00000000       0.00000000       0.00000000 
4
Lattice="3.931762134646807 1.5194309924502508e-29 0.0 1.5194309924502508e-29 3.931762134646807 -1.8992887405628135e-29 0.0 -1.8992887405628135e-29 3.931762134646807" Properties=species:S:1:pos:R:3:Z:I:1:forces:R:3 stress="-0.03941176262725781 2.786920925844045e-28 2.42326499855413e-57 2.786920925844045e-28 -0.039411762627257825 2.786920925844045e-28 2.42326499855413e-57 2.786920925844045e-28 -0.03941176262725781" energy=-650.896950646 Minim_Constant_Volume=T Minim_Hydrostatic_Strain=F pbc="T T T"
Si       0.00000000       0.00000000       0.00000000       14       0.00000000       0.00000000       0.00000000 
Si       1.96588107       1.96588107      -0.00000000       14       0.00000000       0.00000000       0.00000000 
Si       1.96588107      -0.00000000       1.96588107       14       0.00000000       0.00000000       0.00000000 
Si       0.00000000       1.96588107       1.96588107       14       0.00000000       0.00000000       0.00000000 
4
Lattice="3.897865946783059 1.5063317975848622e-29 0.0 1.5063317975848622e-29 3.897865946783059 -1.8829147469810776e-29 0.0 -1.8829147469810776e-29 3.897865946783059" Properties=species:S:1:pos:R:3:Z:I:1:forces:R:3 stress="-0.07420806738229511 8.861257191214248e-30 1.7122181285787615e-59 8.861257191214248e-30 -0.07420806738229509 -6.645942893410686e-30 1.7122181285787615e-59 -6.645942893410686e-30 -0.07420806738229511" energy=-650.807639904 Minim_Constant_Volume=T Minim_Hydrostatic_Strain=F pbc="T T T"
Si       0.00000000       0.00000000       0.00000000       14       0.00000000       0.00000000       0.00000000 
Si       1.94893297       1.94893297      -0.00000000       14       0.00000000       0.00000000       0.00000000 
Si       1.94893297      -0.00000000       1.94893297       14       0.00000000       0.00000000       0.00000000 
Si       0.00000000       1.94893297       1.94893297       14       0.00000000       0.00000000       0.00000000 
4
Lattice="3.863369748746597 1.4930007285569517e-29 0.0 1.4930007285569517e-29 3.863369748746597 -1.8662509106961897e-29 0.0 -1.8662509106961897e-29 3.863369748746597" Properties=species:S:1:pos:R:3:Z:I:1:forces:R:3 stress="-0.10193859044189352 -1.2483417398538483e-46 -9.838590827573491e-76 -1.2483417398538483e-46 -0.10193859044189356 -1.6696623546036426e-46 -9.838590827573491e-76 -1.6696623546036426e-46 -0.10193859044189352" energy=-650.669339582 Minim_Constant_Volume=T Minim_Hydrostatic_Strain=F pbc="T T T"
Si       0.00000000       0.00000000       0.00000000       14       0.00000000      -0.00000000       0.00000000 
Si       1.93168487       1.93168487      -0.00000000       14       0.00000000      -0.00000000      -0.00000000 
Si       1.93168487      -0.00000000       1.93168487       14      -0.00000000      -0.00000000       0.00000000 
Si       0.00000000       1.93168487       1.93168487       14      -0.00000000      -0.00000000      -0.00000000 
4
Lattice="3.828246261466794 1.4794272433591602e-29 0.0 1.4794272433591602e-29 3.828246261466794 -1.84928405419895e-29 0.0 -1.84928405419895e-29 3.828246261466794" Properties=species:S:1:pos:R:3:Z:I:1:forces:R:3 stress="-0.12131598348690152 -9.700928952142703e-27 -8.775899010928227e-56 -9.700928952142703e-27 -0.12131598348690154 -1.0582831584155675e-26 -8.775899010928227e-56 -1.0582831584155675e-26 -0.12131598348690154" energy=-650.494282418 Minim_Constant_Volume=T Minim_Hydrostatic_Strain=F pbc="T T T"
Si       0.00000000       0.00000000       0.00000000       14       0.00000000       0.00000000       0.00000000 
Si       1.91412313       1.91412313      -0.00000000       14       0.00000000       0.00000000       0.00000000 
Si       1.91412313      -0.00000000       1.91412313       14       0.00000000       0.00000000       0.00000000 
Si       0.00000000       1.91412313       1.91412313       14       0.00000000       0.00000000       0.00000000 
4
Lattice="3.792466165685976 1.465600011553059e-29 0.0 1.465600011553059e-29 3.792466165685976 -1.8320000144413237e-29 0.0 -1.8320000144413237e-29 3.792466165685976" Properties=species:S:1:pos:R:3:Z:I:1:forces:R:3 stress="-0.13785684263704595 1.4040965396307574e-29 -1.9895833795047633e-58 1.4040965396307574e-29 -0.1378568426370458 -6.903474653184556e-29 -1.9895833795047633e-58 -6.903474653184556e-29 -0.13785684263704595" energy=-650.292444669 Minim_Constant_Volume=T Minim_Hydrostatic_Strain=F pbc="T T T"
Si       0.00000000       0.00000000       0.00000000       14      -0.00000000      -0.00000000       0.00000000 
Si       1.89623308       1.89623308      -0.00000000       14      -0.00000000       0.00000000       0.00000000 
Si       1.89623308      -0.00000000       1.89623308       14       0.00000000      -0.00000000       0.00000000 
Si       0.00000000       1.89623308       1.89623308       14      -0.00000000       0.00000000       0.00000000 
4
Lattice="3.9978545147049056 1.5449724181993183e-29 0.0 1.5449724181993183e-29 3.9978545147049056 -1.9312155227491477e-29 0.0 -1.9312155227491477e-29 3.9978545147049056" Properties=species:S:1:pos:R:3:Z:I:1:forces:R:3 stress="0.04123739783215589 3.15883132518554e-30 3.1535565899441084e-59 3.15883132518554e-30 0.04123739783215589 4.211775100247387e-30 3.1535565899441084e-59 4.211775100247387e-30 0.04123739783215589" energy=-650.896017832 Minim_Constant_Volume=T Minim_Hydrostatic_Strain=F pbc="T T T"
Si       0.00000000       0.00000000       0.00000000       14       0.00000000       0.00000000       0.00000000 
Si       1.99892726       1.99892726      -0.00000000       14       0.00000000       0.00000000      -0.00000000 
Si       1.99892726      -0.00000000       1.99892726       14      -0.00000000       0.00000000       0.00000000 
Si       0.00000000       1.99892726       1.99892726       14      -0.00000000       0.00000000      -0.00000000 
4
Lattice="4.030096669301323 1.557432411270992e-29 0.0 1.557432411270992e-29 4.030096669301323 -1.94679051408874e-29 0.0 -1.94679051408874e-29 4.030096669301323" Properties=species:S:1:pos:R:3:Z:I:1:forces:R:3 stress="0.08156613866748705 -3.818995907099323e-47 -3.723959241326994e-57 -3.818995907099323e-47 0.08156613866748705 -9.636319127863863e-28 -3.723959241326994e-57 -9.636319127863863e-28 0.08156613866748705" energy=-650.799943337 Minim_Constant_Volume=T Minim_Hydrostatic_Strain=F pbc="T T T"
Si       0.00000000       0.00000000       0.00000000       14       0.00000000      -0.00000000       0.00000000 
Si       2.01504833       2.01504833      -0.00000000       14       0.00000000       0.00000000      -0.00000000 
Si       2.01504833      -0.00000000       2.01504833       14       0.00000000      -0.00000000       0.00000000 
Si       0.00000000       2.01504833       2.01504833       14      -0.00000000       0.00000000      -0.00000000 
4
Lattice="4.061831020533639 1.569696163536874e-29 0.0 1.569696163536874e-29 4.061831020533639 -1.9621202044210924e-29 0.0 -1.9621202044210924e-29 4.061831020533639" Properties=species:S:1:pos:R:3:Z:I:1:forces:R:3 stress="0.11272555744312379 -6.528229637977811e-29 -6.307092149832474e-59 -6.528229637977811e-29 0.11272555744312379 6.528229637977811e-29 -6.307092149832474e-59 6.528229637977811e-29 0.11272555744312382" energy=-650.648092869 Minim_Constant_Volume=T Minim_Hydrostatic_Strain=F pbc="T T T"
Si       0.00000000       0.00000000       0.00000000       14       0.00000000       0.00000000       0.00000000 
Si       2.03091551       2.03091551      -0.00000000       14       0.00000000       0.00000000       0.00000000 
Si       2.03091551      -0.00000000       2.03091551       14       0.00000000       0.00000000       0.00000000 
Si       0.00000000       2.03091551       2.03091551       14       0.00000000       0.00000000       0.00000000 
4
Lattice="4.093077102444307 1.581771223935199e-29 0.0 1.581771223935199e-29 4.093077102444307 -1.9772140299189987e-29 0.0 -1.9772140299189987e-29 4.093077102444307" Properties=species:S:1:pos:R:3:Z:I:1:forces:R:3 stress="0.13981704732243264 4.500256994378865e-28 2.2981308519478418e-57 4.500256994378865e-28 0.1398170473224327 3.2144692816991887e-29 2.2981308519478418e-57 3.2144692816991887e-29 0.13981704732243264" energy=-650.450728875 Minim_Constant_Volume=T Minim_Hydrostatic_Strain=F pbc="T T T"
Si       0.00000000       0.00000000       0.00000000       14       0.00000000       0.00000000      -0.00000000 
Si       2.04653855       2.04653855      -0.00000000       14      -0.00000000       0.00000000       0.00000000 
Si       2.04653855      -0.00000000       2.04653855       14       0.00000000      -0.00000000      -0.00000000 
Si       0.00000000       2.04653855       2.04653855       14       0.00000000       0.00000000       0.00000000 
4
Lattice="4.123853273844465 1.5936646872356083e-29 0.0 1.5936646872356083e-29 4.123853273844465 -1.9920808590445104e-29 0.0 -1.9920808590445104e-29 4.123853273844465" Properties=species:S:1:pos:R:3:Z:I:1:forces:R:3 stress="0.16290473503580694 -3.0191172302259238e-46 3.91603391903902e-57 -3.0191172302259238e-46 0.16290473503580685 1.013334199274225e-27 3.91603391903902e-57 1.013334199274225e-27 0.16290473503580696" energy=-650.214330696 Minim_Constant_Volume=T Minim_Hydrostatic_Strain=F pbc="T T T"
Si       0.00000000       0.00000000       0.00000000       14      -0.00000000      -0.00000000      -0.00000000 
Si       2.06192664       2.06192664      -0.00000000       14       0.00000000       0.00000000      -0.00000000 
Si       2.06192664      -0.00000000       2.06192664       14      -0.00000000      -0.00000000      -0.00000000 
Si       0.00000000       2.06192664       2.06192664       14      -0.00000000       0.00000000       0.00000000 
4
Lattice="4.15417681339444 1.6053832307830458e-29 0.0 1.6053832307830458e-29 4.15417681339444 -2.006729038478807e-29 0.0 -2.006729038478807e-29 4.15417681339444" Properties=species:S:1:pos:R:3:Z:I:1:forces:R:3 stress="0.1821096234730259 -4.875949538611055e-31 -4.710781446634145e-60 -4.875949538611055e-31 0.18210962347302584 -6.094936923263815e-31 -4.710781446634145e-60 -6.094936923263815e-31 0.18210962347302587" energy=-649.94498619 Minim_Constant_Volume=T Minim_Hydrostatic_Strain=F pbc="T T T"
Si       0.00000000       0.00000000       0.00000000       14      -0.00000000       0.00000000      -0.00000000 
Si       2.07708841       2.07708841      -0.00000000       14       0.00000000      -0.00000000       0.00000000 
Si       2.07708841      -0.00000000       2.07708841       14       0.00000000       0.00000000      -0.00000000 
Si       0.00000000       2.07708841       2.07708841       14      -0.00000000      -0.00000000      -0.00000000 
