48
Lattice="3.8043335 0.0002155 8.83e-05 0.0005251 9.50677 -0.0002918 0.0006121 -0.0008422 27.2491319" Properties=species:S:1:pos:R:3:frac_pos:R:3:force:R:3:Z:I:1:forces:R:3 cutoff=-1.0 stress="-0.005375346609617847 0.00023162286362024196 -0.0002163206157829112 0.00023162286362024196 -0.001895478634123591 -0.00010061519532187446 -0.0002163206157829112 -0.00010061519532187446 0.003424120102279789" castep_run_time=16556.15 nneightol=1.2 pbc="T T T" virial="-0.00551755 -0.07779315 -0.02924855 -0.07779315 -0.00290948 0.03650687 -0.02924855 0.03650687 0.00710454" energy=-7827.93394678 castep_file_name=gb.castep enthalpy=-8203.6092
Si       0.48623742      -0.43802802      -0.10548613       0.12632300      -0.04614800      -0.00419800       0.00425000      -0.00416000      -0.00128000       14      -0.04800722      -0.08447586       0.00350572 
Si       0.49013070       0.45435391      11.12477543       0.12631900       0.04711100       0.40806200      -0.00437000       0.00397000       0.00126000       14      -0.10755426       0.12816027       0.02048669 
Si       0.48454876       2.79975177      10.88359111       0.12676900       0.29388300       0.39927600      -0.00212000       0.00161000      -0.00180000       14       0.02798238      -0.16691702       0.49982565 
Si       0.49087315       3.62759634       8.71582197       0.12647200       0.38092400       0.31961400      -0.00525000      -0.00367000       0.00111000       14      -0.01306332       0.15508446      -0.04126786 
Si       0.48925333       5.97886983       8.94220775       0.12601600       0.62822800       0.32808600       0.00502000       0.00088000      -0.00109000       14      -0.03627737       0.08057722      -0.03440732 
Si       0.48295303       6.75568875       6.70654047       0.12613800       0.71040100       0.24609700      -0.00406000       0.00055000       0.00678000       14       0.08183925       0.06219326       0.03600472 
Si       0.48229476      -0.38411265       6.63542089       0.12625800      -0.04114800       0.24314200       0.00486000       0.00182000       0.00138000       14       0.06042779      -0.05952809      -0.09117904 
Si       0.48281175       0.40185880       4.38207317       0.12650300       0.04205000       0.16071300      -0.00563000      -0.00156000      -0.00131000       14       0.03471394       0.06991353       0.07337655 
Si       0.48891843       2.77146342       4.30699263       0.12648700       0.29050500       0.15777700       0.00416000      -0.00033000      -0.00702000       14      -0.04246368      -0.09899225      -0.11162510 
Si       0.48876508       3.55264970       2.06591986       0.12658500       0.37270300       0.07579100      -0.00481000      -0.00091000       0.00085000       14      -0.01397119      -0.11317092       0.12065446 
Si       0.48230696       5.90087496       2.30364508       0.12612700       0.62000700       0.08425300       0.00557000       0.00361000      -0.00136000       14      -0.01173323      -0.14365791      -0.02804655 
Si       0.48583343       6.72240319       0.12773024       0.12592900       0.70708000       0.00459000       0.00056000      -0.00188000       0.00211000       14      -0.02459940       0.18439513      -0.41531637 
Si       2.38340499      -0.39093505      10.04596053       0.62622000      -0.04202400       0.36831800       0.00541000      -0.00122000       0.00155000       14       0.11085011      -0.20617878       0.08410882 
Si       2.39026414       0.39696939       7.78379300       0.62633400       0.04174100       0.28537400      -0.00473000       0.00379000       0.00720000       14      -0.06668598       0.05847329       0.04571017 
Si       2.39223911       2.77202518       7.64876885       0.62639000       0.29131600       0.28035700       0.00482000      -0.00169000       0.00246000       14       0.00421618      -0.04957758      -0.04993220 
Si       2.38799240       3.57658264       5.42485637       0.62654800       0.37578100       0.19901300      -0.00546000       0.00152000       0.00436000       14       0.04045711       0.02742778       0.15888852 
Si       2.39210074       5.94614803       5.58386579       0.62607300       0.62513900       0.20485800       0.00568000      -0.00135000      -0.00449000       14      -0.08646232      -0.01282092      -0.05248938 
Si       2.38287865       6.75406088       3.37053630       0.62621100       0.70960100       0.12351400      -0.00451000       0.00183000      -0.00242000       14       0.03079108       0.05925246      -0.01638567 
Si       2.38783535      -0.38032221       3.23135208       0.62641800      -0.04082900       0.11847900       0.00407000      -0.00347000      -0.00700000       14      -0.03632724      -0.02597230       0.01371193 
Si       2.38428041       0.41757107       0.97793862       0.62643100       0.04298500       0.03554200      -0.00547000       0.00112000      -0.00149000       14       0.04984575       0.10086285      -0.17612655 
Si       2.38972761       2.78191972       0.88099687       0.62653200       0.29193600       0.03214900       0.00248000       0.00112000       0.00315000       14       0.00931246      -0.13849985       0.09413533 
Si       2.39219226       3.53869497      12.32020538       0.62675900       0.37124600       0.45193900      -0.00260000      -0.00237000       0.00014000       14      -0.04709208      -0.37292036      -0.00404279 
Si       2.38968973       5.86186216      12.32246829       0.62587900       0.61611200       0.45194000       0.00145000       0.00174000      -0.00164000       14       0.00120461       0.06250801      -0.02659400 
Si       2.38833449       6.74509663      10.13368298       0.62607100       0.70902600       0.37171700      -0.00234000      -0.00134000      -0.00314000       14       0.02596187       0.16125194      -0.05190203 
Si       0.48531251       0.45171490      13.51839671       0.12623400       0.04710800       0.49581400      -0.00203000       0.00328000      -0.00041000       14      -0.01624012       0.10419262      -0.01645425 
Si       0.48350589       2.79476841      13.75337869       0.12666400       0.29387800       0.50460500      -0.00075000       0.00122000      -0.00022000       14       0.02533118      -0.11465170      -0.42655521 
Si       0.48270669       3.62794829      15.92633714       0.12639800       0.38092700       0.58426000      -0.00288000      -0.00398000       0.00212000       14      -0.00807157       0.10724844       0.00323445 
Si       0.48297546       5.97730272      15.69799144       0.12601200       0.62822700       0.57580100       0.00277000       0.00127000      -0.00175000       14       0.04607853       0.06620291       0.01843611 
Si       0.48628576       6.75418685      17.92811255       0.12609300       0.71042500       0.65777900      -0.00194000      -0.00051000      -0.00396000       14      -0.04936991       0.08745091       0.03437814 
Si       0.48244796       9.12247527      18.01345696       0.12607300       0.95886800       0.66072100       0.00347000       0.00244000      -0.00406000       14      -0.00390557      -0.06067679      -0.03568497 
Si       0.48663201       0.40607760      20.25352079       0.12630200       0.04207900       0.74313900      -0.00267000      -0.00267000       0.00411000       14       0.01963195      -0.03830285       0.03789370 
Si       0.48416709       2.76307723      20.33149570       0.12643900       0.29052200       0.74609700       0.00179000       0.00027000       0.00384000       14       0.00633368       0.01799642       0.05243742 
Si       0.48863397       3.54758851      22.56520426       0.12654900       0.37271300       0.82807500      -0.00296000      -0.00100000       0.00172000       14      -0.03767826      -0.10536452      -0.00877004 
Si       0.48089148       5.89893350      22.33855955       0.12615000       0.62001000       0.81961100       0.00260000       0.00385000      -0.00210000       14       0.11950730      -0.15488760       0.01020087 
Si       0.48610337       6.72471910      24.51296764       0.12584900       0.70708600       0.89926200       0.00224000      -0.00093000       0.00015000       14      -0.03181170       0.15741790       0.41622175 
Si       0.48651267       9.06994809      24.74750343       0.12628300       0.95385500       0.90805200       0.00222000      -0.00331000       0.00047000       14       0.05498732      -0.11430283       0.03789998 
Si       2.38656737       3.65803698      25.94812457       0.62680500       0.38484600       0.95192500      -0.00160000      -0.00144000       0.00162000       14      -0.00366765       0.01822036      -0.05097908 
Si       2.38186171       5.98814832      25.94402573       0.62585100       0.62971700       0.95192600       0.00260000       0.00171000      -0.00045000       14       0.05406794       0.28473939       0.00862322 
Si       2.38947823       6.74100470      14.50928136       0.62604100       0.70901100       0.53215700      -0.00054000      -0.00160000       0.00603000       14      -0.04508186       0.19335877       0.05595565 
Si       2.38593953       9.11231816      14.59948355       0.62615300       0.95795600       0.53555400       0.00331000      -0.00050000      -0.00370000       14       0.02283614      -0.18133832      -0.08496119 
Si       2.38288429       0.40222391      16.86231781       0.62612500       0.04175500       0.61848500      -0.00180000       0.00262000      -0.00446000       14       0.01457670      -0.01453669      -0.03890285 
Si       2.38414293       2.77213875      16.99702457       0.62634800       0.29131700       0.62352500       0.00215000      -0.00079000      -0.00543000       14       0.00927931      -0.01783867      -0.01593690 
Si       2.38627764       3.57628260      19.21391113       0.62647200       0.37579900       0.70485600      -0.00332000       0.00098000      -0.00112000       14      -0.00530554       0.03823380      -0.09666055 
Si       2.38450742       5.94862616      19.05539477       0.62606400       0.62514900       0.69901800       0.00310000      -0.00084000       0.00117000       14       0.05343610      -0.03957850       0.06410545 
Si       2.39296785       6.75303653      21.27220406       0.62619600       0.70962200       0.78035100      -0.00245000       0.00097000       0.00562000       14      -0.11900730       0.06519872      -0.01477536 
Si       2.39191996       9.12568114      21.40644070       0.62625800       0.95918500       0.78537400       0.00251000      -0.00284000       0.00459000       14      -0.02034571       0.00314404       0.02537444 
Si       2.39311118       0.41223505      23.66957173       0.62635200       0.04298400       0.86830600      -0.00322000       0.00070000       0.00378000       14      -0.06150137       0.16830910       0.07676847 
Si       2.38806353       2.78071695      23.76099899       0.62652300       0.29192700       0.87171200       0.00041000       0.00150000      -0.00588000       14       0.03255519      -0.14762326      -0.10294296 
48
Lattice="3.813080641731551 -0.0001612350455444113 0.0004401925842525776 -0.0004156009627125329 9.514477792321777 0.00011782198308002542 0.0031349362225651873 0.00032978644981579533 27.209221764569133" Properties=species:S:1:pos:R:3:frac_pos:R:3:force:R:3:Z:I:1:forces:R:3 cutoff=-1.0 stress="-0.003417159123912071 -6.777474071794364e-05 0.0001916645323721358 -6.777474071794364e-05 -0.0026012054035959705 3.342749341179895e-05 0.0001916645323721358 3.342749341179895e-05 0.004152705220236213" castep_run_time=16556.15 nneightol=1.2 pbc="T T T" virial="-0.00551755 -0.07779315 -0.02924855 -0.07779315 -0.00290948 0.03650687 -0.02924855 0.03650687 0.00710454" energy=-7828.01737844 castep_file_name=gb.castep enthalpy=-8203.6092
Si       0.48545797      -0.43391169      -0.11371063       0.12632300      -0.04614800      -0.00419800       0.00425000      -0.00416000      -0.00128000       14       0.01999700       0.11298090       0.13722920 
Si       0.48553989       0.45129889      11.11840590       0.12631900       0.04711100       0.40806200      -0.00437000       0.00397000       0.00126000       14       0.04846016      -0.12171689      -0.17255504 
Si       0.48619603       2.77707363      10.90652218       0.12676900       0.29388300       0.39927600      -0.00212000       0.00161000      -0.00180000       14       0.01005396       0.06457723      -0.03900506 
Si       0.49160474       3.63704975       8.71014477       0.12647200       0.38092400       0.31961400      -0.00525000      -0.00367000       0.00111000       14       0.00184021       0.01587365       0.17027843 
Si       0.48985908       5.99385357       8.93053861       0.12601600       0.62822800       0.32808600       0.00502000       0.00088000      -0.00109000       14       0.00618844       0.04557034       0.01503350 
Si       0.49051322       6.76801246       6.69951145       0.12613800       0.71040100       0.24609700      -0.00406000       0.00055000       0.00678000       14      -0.02990315      -0.03493344      -0.06282533 
Si       0.49010494      -0.38741638       6.62288011       0.12625800      -0.04114800       0.24314200       0.00486000       0.00182000       0.00138000       14      -0.02005531       0.04131417       0.03265554 
Si       0.48803169       0.40572562       4.37867555       0.12650300       0.04205000       0.16071300      -0.00563000      -0.00156000      -0.00131000       14      -0.00945220      -0.04233469      -0.03193629 
Si       0.48861688       2.76389001       4.29712258       0.12648700       0.29050500       0.15777700       0.00416000      -0.00033000      -0.00702000       14       0.00971071       0.05142260       0.10203183 
Si       0.48943166       3.54285435       2.06903864       0.12658500       0.37270300       0.07579100      -0.00481000      -0.00091000       0.00085000       14       0.00267258      -0.04440348      -0.00894328 
Si       0.48295214       5.89981056       2.29071807       0.12612700       0.62000700       0.08425300       0.00557000       0.00361000      -0.00136000       14       0.01450392      -0.04154632      -0.16046461 
Si       0.48565636       6.75352562       0.09498253       0.12592900       0.70708000       0.00459000       0.00056000      -0.00188000       0.00211000       14      -0.00942356      -0.04327142       0.02212333 
Si       2.39668085      -0.40775508      10.04429015       0.62622000      -0.04202400       0.36831800       0.00541000      -0.00122000       0.00155000       14      -0.04983320       0.08451640       0.04075653 
Si       2.39473946       0.39748410       7.78029485       0.62633400       0.04174100       0.28537400      -0.00473000       0.00379000       0.00720000       14       0.02396885      -0.01520585       0.02178288 
Si       2.39873247       2.77072891       7.64206559       0.62639000       0.29131600       0.28035700       0.00482000      -0.00169000       0.00246000       14      -0.00967413       0.01125818       0.07532764 
Si       2.39623002       3.57806841       5.42877024       0.62654800       0.37578100       0.19901300      -0.00546000       0.00152000       0.00436000       14      -0.01236067      -0.00796510      -0.03127206 
Si       2.39421358       5.95220735       5.57344087       0.62607300       0.62513900       0.20485800       0.00568000      -0.00135000      -0.00449000       14       0.02803341       0.00734233      -0.00763859 
Si       2.39030576       6.76356296       3.35895101       0.62621100       0.70960100       0.12351400      -0.00451000       0.00183000      -0.00242000       14      -0.00464490      -0.02684051      -0.05074816 
Si       2.39333331      -0.37977155       3.22280539       0.62641800      -0.04082900       0.11847900       0.00407000      -0.00347000      -0.00700000       14       0.01216876       0.03013721      -0.02653997 
Si       2.39358522       0.42654193       0.95893929       0.62643100       0.04298500       0.03554200      -0.00547000       0.00112000      -0.00149000       14      -0.01726407      -0.07079275      -0.03603586 
Si       2.39670420       2.77249288       0.88356542       0.62653200       0.29193600       0.03214900       0.00248000       0.00112000       0.00315000       14      -0.00707909       0.04867916       0.02297896 
Si       2.39415557       3.50204571      12.30255460       0.62675900       0.37124600       0.45193900      -0.00260000      -0.00237000       0.00014000       14      -0.01713619       0.10393468       0.00230227 
Si       2.39459874       5.86706012      12.30209443       0.62587900       0.61611200       0.45194000       0.00145000       0.00174000      -0.00164000       14      -0.00080041      -0.24516505       0.00741152 
Si       2.39683873       6.76289692      10.11940238       0.62607100       0.70902600       0.37171700      -0.00234000      -0.00134000      -0.00314000       14      -0.00765441      -0.05982908      -0.05930464 
Si       0.48493416       0.44770704      13.48880085       0.12623400       0.04710800       0.49581400      -0.00203000       0.00328000      -0.00041000       14       0.00962484      -0.09562174       0.16881734 
Si       0.48536547       2.77534901      13.69889854       0.12666400       0.29387800       0.50460500      -0.00075000       0.00122000      -0.00022000       14       0.00878206       0.04606846       0.01826095 
Si       0.48406088       3.63544865      15.89191601       0.12639800       0.38092700       0.58426000      -0.00288000      -0.00398000       0.00212000       14       0.00863801       0.03153988      -0.14981061 
Si       0.48624035       5.99219683      15.67173110       0.12601200       0.62822700       0.57580100       0.00277000       0.00127000      -0.00175000       14      -0.01589760       0.04169896       0.01068190 
Si       0.48453360       6.76839295      17.90384891       0.12609300       0.71042500       0.65777900      -0.00194000      -0.00051000      -0.00396000       14       0.01735444      -0.05747876       0.06286890 
Si       0.48296231       9.12526089      17.98197804       0.12607300       0.95886800       0.66072100       0.00347000       0.00244000      -0.00406000       14       0.00754687       0.06495084      -0.00393832 
Si       0.48909852       0.40486069      20.22938058       0.12630200       0.04207900       0.74313900      -0.00267000      -0.00267000       0.00411000       14      -0.00951361      -0.01750874      -0.01108767 
Si       0.48662355       2.76605654      20.30528861       0.12643900       0.29052200       0.74609700       0.00179000       0.00027000       0.00384000       14      -0.00201088       0.02225829      -0.07392020 
Si       0.48977131       3.54208223      22.53493858       0.12654900       0.37271300       0.82807500      -0.00296000      -0.00100000       0.00172000       14       0.00793511      -0.04001922       0.01338118 
Si       0.48962244       5.89918214      22.31670356       0.12615000       0.62001000       0.81961100       0.00260000       0.00385000      -0.00210000       14      -0.04536454      -0.03323456       0.14727053 
Si       0.48838841       6.75552983      24.51083221       0.12584900       0.70708600       0.89926200       0.00224000      -0.00093000       0.00015000       14      -0.00495889      -0.04527464      -0.02024593 
Si       0.49162718       9.08235415      24.72205609       0.12628300       0.95385500       0.90805200       0.00222000      -0.00331000       0.00047000       14      -0.03013313       0.11441350      -0.15306923 
Si       2.39539590       3.66865700      25.90646512       0.62680500       0.38484600       0.95192500      -0.00160000      -0.00144000       0.00162000       14      -0.00170520       0.19743077       0.02129849 
Si       2.39342374       6.02898922      25.90677916       0.62585100       0.62971700       0.95192600       0.00260000       0.00171000      -0.00045000       14       0.01671275      -0.06615858       0.00463720 
Si       2.39173688       6.76146417      14.48644634       0.62604100       0.70901100       0.53215700      -0.00054000      -0.00160000       0.00603000       14       0.01360112      -0.05791034       0.04027007 
Si       2.39172157       9.10452942      14.56435471       0.62615300       0.95795600       0.53555400       0.00331000      -0.00050000      -0.00370000       14      -0.00952890       0.09172090      -0.04847428 
Si       2.39008508       0.39749296      16.82723750       0.62612500       0.04175500       0.61848500      -0.00180000       0.00262000      -0.00446000       14       0.00124051      -0.00057725      -0.02519316 
Si       2.39109840       2.77306893      16.96222323       0.62634800       0.29131700       0.62352500       0.00215000      -0.00079000      -0.00543000       14      -0.00544875      -0.00233904      -0.04305253 
Si       2.39261324       3.58229830      19.17911316       0.62647200       0.37579900       0.70485600      -0.00332000       0.00098000      -0.00112000       14       0.00341031      -0.02387154      -0.01873338 
Si       2.39260454       5.95487148      19.03324108       0.62606400       0.62514900       0.69901800       0.00310000      -0.00084000       0.00117000       14      -0.01599359       0.01615646       0.00346710 
Si       2.39204243       6.76443033      21.24875839       0.62619600       0.70962200       0.78035100      -0.00245000       0.00097000       0.00562000       14       0.04748839      -0.02145932       0.05120585 
Si       2.39495702       9.13676050      21.38446451       0.62625800       0.95918500       0.78537400       0.00251000      -0.00284000       0.00459000       14       0.00150170       0.00918078       0.03773777 
Si       2.39637053       0.42808048      23.64743419       0.62635200       0.04298400       0.86830600      -0.00322000       0.00070000       0.00378000       14       0.02404889      -0.07228057       0.05446745 
Si       2.39732105       2.77414408      23.72296574       0.62652300       0.29192700       0.87171200       0.00041000       0.00150000      -0.00588000       14      -0.00964662       0.03471320      -0.04948215 
48
Lattice="3.816691626676817 -0.00015518357326309133 0.0003387353459684493 -0.0003999509490092391 9.52028471295678 0.00010461801211930782 0.0024017955089524075 0.00028872379525650145 27.18204365659261" Properties=species:S:1:pos:R:3:frac_pos:R:3:force:R:3:Z:I:1:forces:R:3 cutoff=-1.0 stress="-0.00291248565183928 -6.533493767696134e-05 0.00016389625234452352 -6.533493767696134e-05 -0.0018207341719570945 3.10643595794007e-05 0.00016389625234452352 3.10643595794007e-05 0.0036680132489910087" castep_run_time=16556.15 nneightol=1.2 pbc="T T T" virial="-0.00551755 -0.07779315 -0.02924855 -0.07779315 -0.00290948 0.03650687 -0.02924855 0.03650687 0.00710454" energy=-7828.03713308 castep_file_name=gb.castep enthalpy=-8203.6092
Si       0.48586248      -0.42893194      -0.11196996       0.12632300      -0.04614800      -0.00419800       0.00425000      -0.00416000      -0.00128000       14       0.01860489       0.07546310       0.09958917 
Si       0.48604991       0.44669892      11.10473162       0.12631900       0.04711100       0.40806200      -0.00437000       0.00397000       0.00126000       14       0.04167969      -0.08407445      -0.12493493 
Si       0.48675453       2.77613312      10.90005473       0.12676900       0.29388300       0.39927600      -0.00212000       0.00161000      -0.00180000       14       0.00481033       0.02554702      -0.05113003 
Si       0.49157667       3.63995122       8.70847726       0.12647200       0.38092400       0.31961400      -0.00525000      -0.00367000       0.00111000       14       0.00100345       0.01350150       0.12742421 
Si       0.48970139       5.99783454       8.92283467       0.12601600       0.62822800       0.32808600       0.00502000       0.00088000      -0.00109000       14       0.00766705       0.03171993       0.00078491 
Si       0.49051527       6.77162819       6.69145122       0.12613800       0.71040100       0.24609700      -0.00406000       0.00055000       0.00678000       14      -0.02820535      -0.02651191      -0.06450336 
Si       0.49019184      -0.38745198       6.61703946       0.12625800      -0.04114800       0.24314200       0.00486000       0.00182000       0.00138000       14      -0.01998680       0.03326563       0.04402547 
Si       0.48828531       0.40608697       4.37367816       0.12650300       0.04205000       0.16071300      -0.00563000      -0.00156000      -0.00131000       14      -0.00904042      -0.03513896      -0.04191848 
Si       0.48870207       2.76615377       4.29487681       0.12648700       0.29050500       0.15777700       0.00416000      -0.00033000      -0.00702000       14       0.01026388       0.04237581       0.10313239 
Si       0.48970436       3.54415837       2.06662845       0.12658500       0.37270300       0.07579100      -0.00481000      -0.00091000       0.00085000       14       0.00253051      -0.03338975      -0.00711314 
Si       0.48359162       5.90207427       2.28133464       0.12612700       0.62000700       0.08425300       0.00557000       0.00361000      -0.00136000       14       0.01219622      -0.03274779      -0.11585441 
Si       0.48580090       6.76111248       0.09061806       0.12592900       0.70708000       0.00459000       0.00056000      -0.00188000       0.00211000       14      -0.00417431      -0.01154918       0.03304791 
Si       2.39831723      -0.41034831      10.03616664       0.62622000      -0.04202400       0.36831800       0.00541000      -0.00122000       0.00155000       14      -0.04280455       0.05528649       0.02897674 
Si       2.39663613       0.39712220       7.77521603       0.62633400       0.04174100       0.28537400      -0.00473000       0.00379000       0.00720000       14       0.02349273      -0.01006983      -0.00285434 
Si       2.40039106       2.77216097       7.63936319       0.62639000       0.29131600       0.28035700       0.00482000      -0.00169000       0.00246000       14      -0.00817508       0.01866762       0.07956910 
Si       2.39814981       3.58036689       5.42514644       0.62654800       0.37578100       0.19901300      -0.00546000       0.00152000       0.00436000       14      -0.01257814      -0.00857470      -0.02502289 
Si       2.39617848       5.95574043       5.56626760       0.62607300       0.62513900       0.20485800       0.00568000      -0.00135000      -0.00449000       14       0.02642073       0.00930360      -0.01142814 
Si       2.39261394       6.76757647       3.35079974       0.62621100       0.70960100       0.12351400      -0.00451000       0.00183000      -0.00242000       14      -0.00337308      -0.02791227      -0.05712513 
Si       2.39545067      -0.37871182       3.21714631       0.62641800      -0.04082900       0.11847900       0.00407000      -0.00347000      -0.00700000       14       0.01140271       0.01550501      -0.01003986 
Si       2.39569167       0.42874295       0.95499993       0.62643100       0.04298500       0.03554200      -0.00547000       0.00112000      -0.00149000       14      -0.01607954      -0.03889299      -0.01466250 
Si       2.39874721       2.77658994       0.88317462       0.62653200       0.29193600       0.03214900       0.00248000       0.00112000       0.00315000       14      -0.00700620       0.03526765       0.00737118 
Si       2.39548630       3.50002202      12.29028911       0.62675900       0.37124600       0.45193900      -0.00260000      -0.00237000       0.00014000       14      -0.00701529       0.07507596       0.00248646 
Si       2.39643995       5.86080264      12.28970097       0.62587900       0.61611200       0.45194000       0.00145000       0.00174000      -0.00164000       14      -0.00090917      -0.17633100       0.00768977 
Si       2.39862191       6.76414601      10.10813423       0.62607100       0.70902600       0.37171700      -0.00234000      -0.00134000      -0.00314000       14      -0.00881415      -0.04513159      -0.03313247 
Si       0.48542222       0.44372867      13.47773989       0.12623400       0.04710800       0.49581400      -0.00203000       0.00328000      -0.00041000       14       0.00783194      -0.06309772       0.12048935 
Si       0.48601358       2.77448538      13.68097328       0.12666400       0.29387800       0.50460500      -0.00075000       0.00122000      -0.00022000       14       0.00363585       0.01191161       0.03109578 
Si       0.48454506       3.63832542      15.86946303       0.12639800       0.38092700       0.58426000      -0.00288000      -0.00398000       0.00212000       14       0.00633215       0.02841145      -0.10897602 
Si       0.48651164       5.99605238      15.65550564       0.12601200       0.62822700       0.57580100       0.00277000       0.00127000      -0.00175000       14      -0.01589464       0.03299660       0.01751180 
Si       0.48482800       6.77164172      17.88799248       0.12609300       0.71042500       0.65777900      -0.00194000      -0.00051000      -0.00396000       14       0.01636906      -0.03940334       0.05939842 
Si       0.48339954       9.13154972      17.96298375       0.12607300       0.95886800       0.66072100       0.00347000       0.00244000      -0.00406000       14       0.00790954       0.04644093      -0.01283528 
Si       0.48903271       0.40487216      20.20966895       0.12630200       0.04207900       0.74313900      -0.00267000      -0.00267000       0.00411000       14      -0.01083927      -0.00702114       0.00223914 
Si       0.48662649       2.76834240      20.28307618       0.12643900       0.29052200       0.74609700       0.00179000       0.00027000       0.00384000       14      -0.00039086       0.01184152      -0.07364270 