2
Lattice="2.952495456009798 4.140121708843373e-18 3.651746901048302e-24 -1.4762477280048982 2.5569360694626058 -5.573779485545502e-23 5.152222273901234e-24 -9.845192855319427e-23 4.754151394359235" Properties=species:S:1:pos:R:3:Z:I:1:forces:R:3 stress="1.9917409323078407e-06 -2.922263668027336e-20 1.0057381828325228e-23 -2.922263668027336e-20 1.9917409323078276e-06 -1.7420035224720353e-23 1.0057381828325228e-23 -1.7420035224720353e-23 5.497789843384546e-07" energy=-12.1381929557 Minim_Constant_Volume=T Minim_Hydrostatic_Strain=F pbc="T T T"
Ti       0.00000000      -0.00000000       0.00000000       22       0.00000000      -0.00000000       0.00000000 
Ti       0.00000000       1.70462405       2.37707570       22      -0.00000000       0.00000000      -0.00000000 
2
Lattice="2.927000055605949 9.813764887710229e-18 -6.1986357192730065e-25 -1.4635000278029737 2.5348564050332163 2.0784497437714195e-22 -1.7237848475808257e-24 3.8771468357411464e-22 4.716399305244611" Properties=species:S:1:pos:R:3:Z:I:1:forces:R:3 stress="-0.01655414569528628 -2.62668044332481e-45 -4.129999025073374e-24 -2.62668044332481e-45 -0.01655414569528628 -1.0364494870804326e-22 -4.129999025073374e-24 -1.0364494870804326e-22 -0.016547859265985867" energy=-12.1307360789 Minim_Constant_Volume=T Minim_Hydrostatic_Strain=F pbc="T T T"
Ti      -0.00000000      -0.00000000       0.00000000       22       0.00000000      -0.00000000       0.00000000 
Ti       0.00000000       1.68990427       2.35819965       22      -0.00000000       0.00000000      -0.00000000 
2
Lattice="2.9009125704227965 -2.1290699102047665e-17 2.5838344117211102e-23 -1.4504562852113976 2.512263980143756 4.921040950366189e-22 4.091678247143025e-23 9.408747632848825e-22 4.678489897449442" Properties=species:S:1:pos:R:3:Z:I:1:forces:R:3 stress="-0.0349629047944328 1.734723475976807e-17 -5.910443395979047e-23 1.734723475976807e-17 -0.034962904794432835 8.187844099471077e-23 -5.910443395979047e-23 8.187844099471077e-23 -0.03496800722849416" energy=-12.1077219491 Minim_Constant_Volume=T Minim_Hydrostatic_Strain=F pbc="T T T"
Ti       0.00000000      -0.00000000       0.00000000       22      -0.00000000       0.00000000       0.00000000 
Ti       0.00000000       1.67484265       2.33924495       22       0.00000000      -0.00000000      -0.00000000 
2
Lattice="2.868197355009906 -1.038697095108846e-16 3.2459788475132014e-22 -1.4340986775049522 2.4839317725059127 6.072264360017263e-22 5.224506973776432e-22 1.4265927609207722e-21 4.659800790926815" Properties=species:S:1:pos:R:3:Z:I:1:forces:R:3 stress="-0.05433127095714437 -2.7755575615628914e-17 2.2638956930156977e-23 -2.7755575615628914e-17 -0.05433127095714438 2.58631335547033e-22 2.2638956930156977e-23 2.58631335547033e-22 -0.05429787168237911" energy=-12.0675506199 Minim_Constant_Volume=T Minim_Hydrostatic_Strain=F pbc="T T T"
Ti       0.00000000       0.00000000       0.00000000       22       0.00000000      -0.00000000      -0.00000000 
Ti       0.00000000       1.65595452       2.32990040       22      -0.00000000       0.00000000       0.00000000 
2
Lattice="2.840704972113673 -2.9691016430098798e-18 1.0460652606149979e-22 -1.4203524860568357 2.4601226705072063 2.9813725122750365e-22 1.6429931553574942e-22 6.383975848418206e-22 4.6221219386634775" Properties=species:S:1:pos:R:3:Z:I:1:forces:R:3 stress="-0.07720659874247697 -2.0816681711721685e-17 -4.2446179296298254e-23 -2.0816681711721685e-17 -0.077206598742477 8.164246375353846e-23 -4.2446179296298254e-23 8.164246375353846e-23 -0.07721238941190005" energy=-12.0086866774 Minim_Constant_Volume=T Minim_Hydrostatic_Strain=F pbc="T T T"
Ti       0.00000000      -0.00000000       0.00000000       22      -0.00000000       0.00000000      -0.00000000 
Ti       0.00000000       1.64008178       2.31106097       22       0.00000000      -0.00000000       0.00000000 
2
Lattice="2.8123707775112377 -2.9394867746679355e-18 -8.158974104693992e-23 -1.4061853887556182 2.4355845381857253 3.963244161675716e-22 -1.3892323379271485e-22 6.469176231771661e-22 4.584730998618787" Properties=species:S:1:pos:R:3:Z:I:1:forces:R:3 stress="-0.10265897611902612 8.326672684688674e-17 -8.254772947804849e-23 8.326672684688674e-17 -0.10265897611902598 -1.4067637580228503e-22 -8.254772947804849e-23 -1.4067637580228503e-22 -0.1026605500546374" energy=-11.9282232383 Minim_Constant_Volume=T Minim_Hydrostatic_Strain=F pbc="T T T"
Ti      -0.00000000       0.00000000       0.00000000       22       0.00000000       0.00000000       0.00000000 
Ti       0.00000000       1.62372303       2.29236550       22       0.00000000       0.00000000       0.00000000 
2
Lattice="2.9779985472230512 -1.2750482829844942e-17 1.3635967160118386e-22 -1.488999273611525 2.579022394328315 -5.0345656922119826e-23 2.188407569486725e-22 3.48500023086147e-23 4.789897360647452" Properties=species:S:1:pos:R:3:Z:I:1:forces:R:3 stress="0.01539601375384007 -3.469446951953614e-18 3.171351603776755e-23 -3.469446951953614e-18 0.015396013753840043 3.9727240626743155e-24 3.171351603776755e-23 3.9727240626743155e-24 0.015395998075278515" energy=-12.131162955 Minim_Constant_Volume=T Minim_Hydrostatic_Strain=F pbc="T T T"
Ti      -0.00000000       0.00000000       0.00000000       22      -0.00000000       0.00000000      -0.00000000 
Ti       0.00000000       1.71934826       2.39494868       22       0.00000000      -0.00000000       0.00000000 
2
Lattice="3.0031997963072565 -2.6756923573908387e-17 1.9832861652688054e-22 -1.5015998981536276 2.600847316242337 4.575658215757765e-23 3.187707995142721e-22 2.7093630702400784e-22 4.824720153393215" Properties=species:S:1:pos:R:3:Z:I:1:forces:R:3 stress="0.029275002276713192 -3.469446951953614e-18 -7.729705300104905e-24 -3.469446951953614e-18 0.02927500227671316 -3.6946155448875786e-23 -7.729705300104905e-24 -3.6946155448875786e-23 0.02911742474183852" energy=-12.1110298339 Minim_Constant_Volume=T Minim_Hydrostatic_Strain=F pbc="T T T"
Ti      -0.00000000       0.00000000       0.00000000       22       0.00000000       0.00000000       0.00000000 
Ti       0.00000000       1.73389821       2.41236008       22      -0.00000000      -0.00000000      -0.00000000 
2
Lattice="3.027606540168902 9.84775799537208e-18 3.2286544066825838e-22 -1.5138032700844504 2.6219841764501823 1.898962768579746e-22 5.19085010650453e-22 6.540557619998477e-22 4.860276718908943" Properties=species:S:1:pos:R:3:Z:I:1:forces:R:3 stress="0.04164031147708211 -1.734723475976807e-17 -5.399039348114011e-23 -1.734723475976807e-17 0.04164031147708207 -9.707081020153109e-23 -5.399039348114011e-23 -9.707081020153109e-23 0.04164416522070501" energy=-12.0791358083 Minim_Constant_Volume=T Minim_Hydrostatic_Strain=F pbc="T T T"
Ti       0.00000000       0.00000000       0.00000000       22      -0.00000000       0.00000000      -0.00000000 
Ti       0.00000000       1.74798945       2.43013836       22       0.00000000      -0.00000000       0.00000000 
2
Lattice="3.051792554099253 1.1341498553197416e-16 5.61291676488718e-22 -1.5258962770496258 2.6429298789301514 4.632291490973879e-22 9.023015924957185e-22 1.3823043907525936e-21 4.894789706471009" Properties=species:S:1:pos:R:3:Z:I:1:forces:R:3 stress="0.052763044716989796 3.469446951953614e-18 -5.849719864255606e-23 3.469446951953614e-18 0.052763044716989664 -1.6435193035677325e-22 -5.849719864255606e-23 -1.6435193035677325e-22 0.052763046723643396" energy=-12.0366895364 Minim_Constant_Volume=T Minim_Hydrostatic_Strain=F pbc="T T T"
Ti       0.00000000       0.00000000       0.00000000       22      -0.00000000       0.00000000       0.00000000 
Ti       0.00000000       1.76195325       2.44739485       22       0.00000000      -0.00000000      -0.00000000 
2
Lattice="3.075732799534115 2.7297715236582365e-16 9.576872187832621e-22 -1.5378663997670565 2.663662739649577 9.995794611469835e-22 1.5389780336517224e-21 2.744092183364259e-21 4.92840809062857" Properties=species:S:1:pos:R:3:Z:I:1:forces:R:3 stress="0.06271202581430495 -6.938893903907228e-18 -1.1679449266438338e-22 -6.938893903907228e-18 0.06271202581430478 -3.2628158453860447e-22 -1.1679449266438338e-22 -3.2628158453860447e-22 0.06260174802420211" energy=-11.9848115443 Minim_Constant_Volume=T Minim_Hydrostatic_Strain=F pbc="T T T"
Ti       0.00000000       0.00000000       0.00000000       22       0.00000000      -0.00000000      -0.00000000 
Ti       0.00000000       1.77577516       2.46420405       22      -0.00000000       0.00000000       0.00000000 
2
Lattice="3.099168812069557 2.5321619812689213e-16 1.3887377948272555e-21 -1.5495844060347777 2.6839589218686815 1.8076541246411437e-21 2.2309328597740423e-21 4.640246621701645e-21 4.962022928335508" Properties=species:S:1:pos:R:3:Z:I:1:forces:R:3 stress="0.07148779552731135 -2.7755575615628914e-17 -1.7054045514100562e-22 -2.7755575615628914e-17 0.07148779552731113 -4.405658517178897e-22 -1.7054045514100562e-22 -4.405658517178897e-22 0.07143101489894699" energy=-11.9245478093 Minim_Constant_Volume=T Minim_Hydrostatic_Strain=F pbc="T T T"
Ti       0.00000000       0.00000000       0.00000000       22       0.00000000      -0.00000000       0.00000000 
Ti       0.00000000       1.78930595       2.48101146       22      -0.00000000       0.00000000      -0.00000000 
