2
Lattice="2.9525833327426847 8.703649416000395e-19 8.716569953921059e-24 -1.4762916663713417 2.5570121729456874 -2.8946532481333496e-23 1.2629758145819231e-23 -4.512441730715901e-23 4.7540887953991895" Properties=species:S:1:pos:R:3:Z:I:1:forces:R:3 stress="4.3753917225180634e-05 -2.371692252312041e-20 -3.2608618876806505e-28 -2.371692252312041e-20 4.3753917225180613e-05 4.6452360694125173e-23 -3.2608618876806505e-28 4.6452360694125173e-23 3.600839750944649e-06" energy=-12.1381929079 Minim_Constant_Volume=T Minim_Hydrostatic_Strain=F pbc="T T T"
Ti       0.00000000      -0.00000000      -0.00000000       22      -0.00000000       0.00000000      -0.00000000 
Ti       0.00000000       1.70467478       2.37704440       22       0.00000000      -0.00000000       0.00000000 
2
Lattice="2.9270477468983347 6.565061151052452e-18 2.7422663213523856e-22 -1.4635238734491667 2.534897706903962 -3.0281295993501644e-22 4.4014143820676565e-22 -3.0745532706717805e-22 4.716464168523071" Properties=species:S:1:pos:R:3:Z:I:1:forces:R:3 stress="-0.016523635020193193 1.0408340855860843e-17 6.222707436647205e-23 1.0408340855860843e-17 -0.016523635020193175 1.2132733643339999e-22 6.222707436647205e-23 1.2132733643339999e-22 -0.016517069808522897" energy=-12.1307628955 Minim_Constant_Volume=T Minim_Hydrostatic_Strain=F pbc="T T T"
Ti       0.00000000      -0.00000000      -0.00000000       22      -0.00000000       0.00000000       0.00000000 
Ti       0.00000000       1.68993180       2.35823208       22       0.00000000      -0.00000000      -0.00000000 
2
Lattice="2.900959619937954 6.506548218015126e-18 1.3550414431652322e-22 -1.4504798099689764 2.512304726219119 -5.12653879425698e-22 2.1624129384411445e-22 -8.266803019460117e-22 4.678555028488215" Properties=species:S:1:pos:R:3:Z:I:1:forces:R:3 stress="-0.03492796923244053 1.3877787807814457e-17 3.761126373334466e-23 1.3877787807814457e-17 -0.03492796923244052 1.8293075007815951e-22 3.761126373334466e-23 1.8293075007815951e-22 -0.03493290515457601" energy=-12.1077771893 Minim_Constant_Volume=T Minim_Hydrostatic_Strain=F pbc="T T T"
Ti       0.00000000      -0.00000000       0.00000000       22       0.00000000      -0.00000000      -0.00000000 
Ti       0.00000000       1.67486982       2.33927751       22      -0.00000000       0.00000000       0.00000000 
2
Lattice="2.8682698063227163 -1.9980560577966682e-16 -1.7018414067576716e-22 -1.4341349031613577 2.4839945171833446 -1.0677630669159513e-21 -2.7832075374931164e-22 -2.1390797223496514e-21 4.659782016911561" Properties=species:S:1:pos:R:3:Z:I:1:forces:R:3 stress="-0.05428959188025691 -2.0816681711721685e-17 3.738965205327161e-23 -2.0816681711721685e-17 -0.05428959188025688 7.647959396900311e-23 3.738965205327161e-23 7.647959396900311e-23 -0.054276614688729886" energy=-12.0676344488 Minim_Constant_Volume=T Minim_Hydrostatic_Strain=F pbc="T T T"
Ti       0.00000000       0.00000000       0.00000000       22      -0.00000000       0.00000000      -0.00000000 
Ti       0.00000000       1.65599634       2.32989101       22       0.00000000      -0.00000000       0.00000000 
2
Lattice="2.840751032830067 -2.3786623083977877e-16 -3.2433603828232624e-22 -1.4203755164150331 2.4601625602577206 -1.5060811392783997e-21 -5.283158570627894e-22 -3.102845081400021e-21 4.622186198769727" Properties=species:S:1:pos:R:3:Z:I:1:forces:R:3 stress="-0.07716739563205186 3.469446951953614e-17 1.3840670408123046e-22 3.469446951953614e-17 -0.07716739563205177 2.469915298000028e-22 1.3840670408123046e-22 2.469915298000028e-22 -0.0771728544772421" energy=-12.008802199 Minim_Constant_Volume=T Minim_Hydrostatic_Strain=F pbc="T T T"
Ti      -0.00000000       0.00000000       0.00000000       22       0.00000000      -0.00000000      -0.00000000 
Ti       0.00000000       1.64010837       2.31109310       22      -0.00000000       0.00000000       0.00000000 
2
Lattice="2.812417319719078 -1.7740203537863382e-16 -5.193324298467836e-22 -1.4062086598595385 2.435624844920063 -1.839645616189467e-21 -8.445944819315546e-22 -3.907140866146418e-21 4.584791802670175" Properties=species:S:1:pos:R:3:Z:I:1:forces:R:3 stress="-0.10261536010183361 6.938893903907228e-17 -4.514718645691264e-24 6.938893903907228e-17 -0.10261536010183367 7.204677055492086e-23 -4.514718645691264e-24 7.204677055492086e-23 -0.10261693401584986" energy=-11.9283726726 Minim_Constant_Volume=T Minim_Hydrostatic_Strain=F pbc="T T T"
Ti      -0.00000000      -0.00000000       0.00000000       22       0.00000000      -0.00000000       0.00000000 
Ti       0.00000000       1.62374990       2.29239590       22      -0.00000000       0.00000000      -0.00000000 
2
Lattice="2.9780465774996974 2.909210212156526e-17 4.414682159769228e-23 -1.489023288749848 2.5790639897680414 -2.4351939689409483e-23 6.968062516357477e-23 -3.689556997024198e-24 4.789965052599457" Properties=species:S:1:pos:R:3:Z:I:1:forces:R:3 stress="0.015423770046221232 -5.204170427930421e-18 3.691625040163278e-23 -5.204170427930421e-18 0.015423770046221221 1.6480579236946242e-23 3.691625040163278e-23 1.6480579236946242e-23 0.015423754929864187" energy=-12.1311366566 Minim_Constant_Volume=T Minim_Hydrostatic_Strain=F pbc="T T T"
Ti       0.00000000      -0.00000000      -0.00000000       22       0.00000000      -0.00000000       0.00000000 
Ti       0.00000000       1.71937599       2.39498253       22      -0.00000000       0.00000000      -0.00000000 
2
Lattice="3.0032481022346196 4.323828004441017e-17 2.6113329976394748e-23 -1.5016240511173091 2.600889150402587 7.9713227376468e-24 4.074854368481489e-23 3.959600003123623e-23 4.8247886147126575" Properties=species:S:1:pos:R:3:Z:I:1:forces:R:3 stress="0.029300484385929863 -1.0408340855860843e-17 1.7304650984475964e-23 -1.0408340855860843e-17 0.02930048438592982 5.924376736858658e-24 1.7304650984475964e-23 5.924376736858658e-24 0.029142915912320537" energy=-12.1109787499 Minim_Constant_Volume=T Minim_Hydrostatic_Strain=F pbc="T T T"
Ti       0.00000000      -0.00000000      -0.00000000       22      -0.00000000       0.00000000      -0.00000000 
Ti       0.00000000       1.73392610       2.41239431       22       0.00000000      -0.00000000       0.00000000 
2
Lattice="3.0276551456647307 9.269046902949079e-17 -3.043940296820242e-23 -1.5138275728323647 2.622026270044334 2.602517781060595e-23 -5.0082763812077146e-23 2.066700756561373e-23 4.860345983222179" Properties=species:S:1:pos:R:3:Z:I:1:forces:R:3 stress="0.041663738778067144 -1.734723475976807e-17 -1.3743799286986716e-23 -1.734723475976807e-17 0.04166373877806704 1.837862557123492e-24 -1.3743799286986716e-23 1.837862557123492e-24 0.041667590276559904" energy=-12.0790613037 Minim_Constant_Volume=T Minim_Hydrostatic_Strain=F pbc="T T T"
Ti       0.00000000      -0.00000000      -0.00000000       22       0.00000000       0.00000000       0.00000000 
Ti      -0.00000000       1.74801751       2.43017299       22      -0.00000000      -0.00000000      -0.00000000 
2
Lattice="3.051841479554641 1.4518019925336693e-16 -5.658305619054505e-23 -1.5259207397773198 2.642972249617409 -1.4171078641006583e-23 -9.210470352265113e-23 -7.805105744374229e-23 4.8948596817733625" Properties=species:S:1:pos:R:3:Z:I:1:forces:R:3 stress="0.05278446981398741 -1.734723475976807e-17 1.8338780949436085e-23 -1.734723475976807e-17 0.05278446981398728 5.287698915321999e-24 1.8338780949436085e-23 5.287698915321999e-24 0.05278447183482233" energy=-12.0365929455 Minim_Constant_Volume=T Minim_Hydrostatic_Strain=F pbc="T T T"
Ti       0.00000000      -0.00000000      -0.00000000       22       0.00000000       0.00000000      -0.00000000 
Ti       0.00000000       1.76198150       2.44742984       22      -0.00000000      -0.00000000       0.00000000 
2
Lattice="3.075782028708961 3.3674083004614705e-16 -8.426043119423398e-23 -1.5378910143544795 2.663705373365601 -9.255884181141774e-23 -1.3659575342019117e-22 -2.489292124275244e-22 4.928478803233557" Properties=species:S:1:pos:R:3:Z:I:1:forces:R:3 stress="0.06273149578726127 -2.0816681711721685e-17 1.9808999890900556e-23 -2.0816681711721685e-17 0.06273149578726112 3.2040291824819876e-23 1.9808999890900556e-23 3.2040291824819876e-23 0.06262124995505136" energy=-11.9846942006 Minim_Constant_Volume=T Minim_Hydrostatic_Strain=F pbc="T T T"
Ti       0.00000000      -0.00000000       0.00000000       22       0.00000000      -0.00000000       0.00000000 
Ti       0.00000000       1.77580358       2.46423940       22      -0.00000000       0.00000000      -0.00000000 
2
Lattice="3.099220305634536 3.393068847122779e-16 -1.3711122884569487e-22 -1.5496101528172672 2.6840035166040845 -9.993799368928105e-23 -2.2140139681222537e-22 -3.116730180409724e-22 4.962088068416204" Properties=species:S:1:pos:R:3:Z:I:1:forces:R:3 stress="0.0715056809438411 -2.7755575615628914e-17 1.3994651545519224e-23 -2.7755575615628914e-17 0.07150568094384087 5.224062519752012e-23 1.3994651545519224e-23 5.224062519752012e-23 0.07144803336499303" energy=-11.9244110359 Minim_Constant_Volume=T Minim_Hydrostatic_Strain=F pbc="T T T"
Ti       0.00000000      -0.00000000       0.00000000       22      -0.00000000       0.00000000      -0.00000000 
Ti       0.00000000       1.78933568       2.48104403       22       0.00000000      -0.00000000       0.00000000 
