2
Lattice="2.9396678542702577 5.41394927598693e-18 1.1571746563787077e-34 -1.4698339271351282 2.545827040486535 -1.3768024686677627e-34 1.7936592180071392e-34 -1.4081371098571768e-34 4.785696796168634" Properties=species:S:1:pos:R:3:Z:I:1:forces:R:3 stress="-3.146387289222004e-05 1.0164395367051604e-20 2.9207885870136786e-34 1.0164395367051604e-20 -3.146387289222002e-05 -1.180228306149265e-33 2.9207885870136786e-34 -1.180228306149265e-33 -5.5256891470872356e-05" energy=-12.1384108488 Minim_Constant_Volume=T Minim_Hydrostatic_Strain=F pbc="T T T"
Ti      -0.00000000       0.00000000      -0.00000000       22      -0.00000000       0.00000000      -0.00000000 
Ti       0.00000000       1.69721803       2.39284840       22       0.00000000      -0.00000000       0.00000000 
2
Lattice="2.9185448306956636 1.4446418447592973e-17 1.6143292066412525e-33 -1.4592724153478311 2.527533965466199 -2.1828420105206517e-34 2.6198170951694797e-33 1.1156108188386127e-33 4.733818653061256" Properties=species:S:1:pos:R:3:Z:I:1:forces:R:3 stress="-0.019377258846109146 6.938893903907228e-18 4.030111094862218e-35 6.938893903907228e-18 -0.019377258846109136 5.7861856344272585e-34 4.030111094862218e-35 5.7861856344272585e-34 -0.019371969277266015" energy=-12.1298476012 Minim_Constant_Volume=T Minim_Hydrostatic_Strain=F pbc="T T T"
Ti      -0.00000000       0.00000000      -0.00000000       22      -0.00000000       0.00000000      -0.00000000 
Ti       0.00000000       1.68502264       2.36690933       22       0.00000000      -0.00000000       0.00000000 
2
Lattice="2.896679112051457 -2.0492593671479543e-17 1.2585257484474805e-32 -1.4483395560257277 2.5085976976483124 2.2234115952127995e-32 2.0423280438947625e-32 5.344407595380215e-32 4.682338960679968" Properties=species:S:1:pos:R:3:Z:I:1:forces:R:3 stress="-0.04013256350904935 2.7755575615628914e-17 5.38674291232467e-34 2.7755575615628914e-17 -0.04013256350904932 1.8106565486177734e-33 5.38674291232467e-34 1.8106565486177734e-33 -0.040066807845282" energy=-12.1032885898 Minim_Constant_Volume=T Minim_Hydrostatic_Strain=F pbc="T T T"
Ti      -0.00000000      -0.00000000      -0.00000000       22       0.00000000       0.00000000       0.00000000 
Ti       0.00000000       1.67239847       2.34116948       22       0.00000000       0.00000000       0.00000000 
2
Lattice="2.8736461930463446 5.0529482501813806e-17 7.03037880934648e-33 -1.4368230965231716 2.488650604666576 1.3374204552810635e-32 1.149821745771816e-32 3.1864514545708833e-32 4.632503739122106" Properties=species:S:1:pos:R:3:Z:I:1:forces:R:3 stress="-0.06223800229821584 2.0816681711721685e-17 1.1444246242417003e-33 2.0816681711721685e-17 -0.06223800229821581 2.9122893935978362e-33 1.1444246242417003e-33 2.9122893935978362e-33 -0.06217832415929484" energy=-12.0576100765 Minim_Constant_Volume=T Minim_Hydrostatic_Strain=F pbc="T T T"
Ti      -0.00000000      -0.00000000      -0.00000000       22       0.00000000       0.00000000       0.00000000 
Ti       0.00000000       1.65910040       2.31625187       22       0.00000000       0.00000000       0.00000000 
2
Lattice="2.8493144901042102 -1.3711919877351382e-16 4.7553496805048416e-33 -1.4246572450521047 2.4675787318013502 1.2448290407568385e-32 7.850524035674745e-33 2.8078734273097965e-32 4.5846155881432376" Properties=species:S:1:pos:R:3:Z:I:1:forces:R:3 stress="-0.08559247427268239 3.218408341584717e-67 -1.7343605739190715e-34 3.218408341584717e-67 -0.0855924742726824 -2.9767686472636486e-34 -1.7343605739190715e-34 -2.9767686472636486e-34 -0.0855723324689302" energy=-11.9914949857 Minim_Constant_Volume=T Minim_Hydrostatic_Strain=F pbc="T T T"
Ti      -0.00000000      -0.00000000      -0.00000000       22       0.00000000      -0.00000000      -0.00000000 
Ti       0.00000000       1.64505249       2.29230779       22      -0.00000000       0.00000000       0.00000000 
2
Lattice="2.825233210825439 -3.0132975350324225e-17 7.055837165696213e-33 -1.4126166054127192 2.446723732190306 7.750668849407115e-33 1.1570910609589559e-32 2.15573175329632e-32 4.533567554453766" Properties=species:S:1:pos:R:3:Z:I:1:forces:R:3 stress="-0.10725801405399471 -6.938893903907228e-18 1.4857267232154415e-33 -6.938893903907228e-18 -0.10725801405399478 3.729674026892028e-33 1.4857267232154415e-33 3.729674026892028e-33 -0.10732053461657588" energy=-11.9050114789 Minim_Constant_Volume=T Minim_Hydrostatic_Strain=F pbc="T T T"
Ti      -0.00000000      -0.00000000      -0.00000000       22       0.00000000      -0.00000000      -0.00000000 
Ti       0.00000000       1.63114915       2.26678378       22      -0.00000000       0.00000000      -0.00000000 
2
Lattice="2.9590660594614278 -1.8926975480130304e-17 2.0994808508809957e-34 -1.4795330297307132 2.5626263789699117 -4.5089136758020057e-35 3.3176963037008517e-34 1.2262015010761408e-34 4.8411963490752274" Properties=species:S:1:pos:R:3:Z:I:1:forces:R:3 stress="0.016667614877818093 -3.469446951953614e-18 -1.2987118850867407e-35 -3.469446951953614e-18 0.016667614877818072 9.798358321626955e-36 -1.2987118850867407e-35 9.798358321626955e-36 0.016624633127279066" energy=-12.1307065671 Minim_Constant_Volume=T Minim_Hydrostatic_Strain=F pbc="T T T"
Ti      -0.00000000       0.00000000      -0.00000000       22       0.00000000       0.00000000       0.00000000 
Ti       0.00000000       1.70841759       2.42059817       22      -0.00000000      -0.00000000      -0.00000000 
2
Lattice="2.9798572175827127 5.685613028102857e-17 1.0678884972025173e-32 -1.4899286087913557 2.580632050077044 -1.623554122519102e-32 1.745837616766983e-32 -2.0575208970766756e-32 4.890336079525243" Properties=species:S:1:pos:R:3:Z:I:1:forces:R:3 stress="0.031267990486751926 -3.469446951953614e-18 -2.225301074988404e-33 -3.469446951953614e-18 0.03126799048675189 -6.3145926453380875e-34 -2.225301074988404e-33 -6.3145926453380875e-34 0.031247879719657947" energy=-12.1091449735 Minim_Constant_Volume=T Minim_Hydrostatic_Strain=F pbc="T T T"
Ti       0.00000000      -0.00000000      -0.00000000       22       0.00000000      -0.00000000       0.00000000 
Ti       0.00000000       1.72042137       2.44516804       22      -0.00000000       0.00000000      -0.00000000 
2
Lattice="3.005745906107417 2.2342544794283037e-16 3.1332633290378824e-32 -1.5028729530537077 2.603052312010101 3.1428271029688935e-32 5.139601752002669e-32 8.926830921202391e-32 4.920902895324042" Properties=species:S:1:pos:R:3:Z:I:1:forces:R:3 stress="0.04409242352653286 -1.734723475976807e-17 -3.214247682854188e-33 -1.734723475976807e-17 0.044092423526532795 -8.220874967168209e-33 -3.214247682854188e-33 -8.220874967168209e-33 0.04402583910545527" energy=-12.0752645903 Minim_Constant_Volume=T Minim_Hydrostatic_Strain=F pbc="T T T"
Ti       0.00000000      -0.00000000      -0.00000000       22       0.00000000       0.00000000       0.00000000 
Ti       0.00000000       1.73536821       2.46045145       22      -0.00000000      -0.00000000      -0.00000000 
2
Lattice="3.03435282348581 5.495567307682163e-16 6.357088954825212e-32 -1.5171764117429039 2.627826629183752 9.526861244587825e-32 1.0445703510331515e-31 2.4091602308942752e-31 4.940807823380934" Properties=species:S:1:pos:R:3:Z:I:1:forces:R:3 stress="0.05500019598442024 -2.0816681711721685e-17 -7.264457267328151e-33 -2.0816681711721685e-17 0.05500019598442016 -1.8995835251126104e-32 -7.264457267328151e-33 -1.8995835251126104e-32 0.05499794513920303" energy=-12.0307769373 Minim_Constant_Volume=T Minim_Hydrostatic_Strain=F pbc="T T T"
Ti       0.00000000      -0.00000000      -0.00000000       22       0.00000000      -0.00000000      -0.00000000 
Ti       0.00000000       1.75188442       2.47040391       22      -0.00000000       0.00000000      -0.00000000 
2
Lattice="3.0652515932506983 9.118130707330008e-16 1.243029086924789e-31 -1.5326257966253478 2.654585748745832 1.9099525118874957e-31 2.0418223959543257e-31 4.799213076249249e-31 4.951683451786529" Properties=species:S:1:pos:R:3:Z:I:1:forces:R:3 stress="0.06393233840861197 -5.551115123125783e-17 -1.2448545901149758e-32 -5.551115123125783e-17 0.06393233840861182 -3.2978275518379255e-32 -1.2448545901149758e-32 -3.2978275518379255e-32 0.0639328579957926" energy=-11.9774109951 Minim_Constant_Volume=T Minim_Hydrostatic_Strain=F pbc="T T T"
Ti       0.00000000      -0.00000000      -0.00000000       22       0.00000000      -0.00000000      -0.00000000 
Ti       0.00000000       1.76972383       2.47584173       22       0.00000000       0.00000000       0.00000000 
2
Lattice="3.0976289708166815 1.5148550493544635e-15 2.80384090256486e-31 -1.548814485408339 2.682625380225894 4.26292654979088e-31 4.582845444938087e-31 1.0690188386198526e-30 4.956413786878403" Properties=species:S:1:pos:R:3:Z:I:1:forces:R:3 stress="0.07095828260797002 -2.7755575615628914e-17 -2.9761442948557236e-32 -2.7755575615628914e-17 0.07095828260796984 -7.562795753365529e-32 -2.9761442948557236e-32 -7.562795753365529e-32 0.07102549950124087" energy=-11.9169128272 Minim_Constant_Volume=T Minim_Hydrostatic_Strain=F pbc="T T T"
Ti       0.00000000      -0.00000000      -0.00000000       22      -0.00000000      -0.00000000      -0.00000000 
Ti       0.00000000       1.78841692       2.47820689       22      -0.00000000       0.00000000       0.00000000 
