2
Lattice="3.2074996264757325 -2.0963956011227814e-17 1.7785479447701826e-26 -1.6037498132378656 2.7777761591570824 -9.803176818440198e-26 1.7105919187932836e-26 -9.86514405888813e-26 3.336052395881743" Properties=species:S:1:pos:R:3:Z:I:1:forces:R:3 stress="7.819610279238129e-06 -1.2532641743817456e-21 1.2883794866255255e-26 -1.2532641743817456e-21 7.819610279238126e-06 -7.438588262905357e-27 1.2883794866255255e-26 -7.438588262905357e-27 2.599772371385726e-06" energy=-325.438833066 Minim_Constant_Volume=T Minim_Hydrostatic_Strain=F pbc="T T T"
Si       0.00000000      -0.00000000      -0.00000000       14       0.00000000      -0.00000000      -0.00000000 
Si      -0.00000000       1.85185077       1.66802620       14      -0.00000000       0.00000000       0.00000000 
2
Lattice="3.154968554244151 -1.62981557660614e-17 3.6922735812251287e-26 -1.5774842771220747 2.732282916116497 -1.0489541986660862e-25 3.659047159018677e-26 -9.297954405973243e-26 3.3612191684812287" Properties=species:S:1:pos:R:3:Z:I:1:forces:R:3 stress="-0.005786534955579272 1.2598954972554166e-18 -1.2553460462572994e-26 1.2598954972554166e-18 -0.005786534955579273 -6.930468288214477e-27 -1.2553460462572994e-26 -6.930468288214477e-27 -0.005701918891535537" energy=-325.436624284 Minim_Constant_Volume=T Minim_Hydrostatic_Strain=F pbc="T T T"
Si       0.00000000      -0.00000000      -0.00000000       14       0.00000000      -0.00000000       0.00000000 
Si      -0.00000000       1.82152194       1.68060958       14      -0.00000000       0.00000000      -0.00000000 
2
Lattice="3.1037651704234364 -3.2657470726557105e-17 2.595477997546356e-26 -1.5518825852117175 2.687939484968033 -7.089099589262424e-26 2.4044690939965463e-26 -5.566340774790421e-26 3.38403123976154" Properties=species:S:1:pos:R:3:Z:I:1:forces:R:3 stress="-0.02005976422595412 1.9590853252372257e-18 -5.461801255911488e-28 1.9590853252372257e-18 -0.020059764225954145 5.569927427387982e-28 -5.461801255911488e-28 5.569927427387982e-28 -0.02000625999381651" energy=-325.4282516 Minim_Constant_Volume=T Minim_Hydrostatic_Strain=F pbc="T T T"
Si       0.00000000      -0.00000000      -0.00000000       14       0.00000000      -0.00000000       0.00000000 
Si       0.00000000       1.79195966       1.69201562       14      -0.00000000       0.00000000      -0.00000000 
2
Lattice="3.0585852076438926 -8.863707370617606e-17 -6.108484372196432e-26 -1.5292926038219457 2.648812489458913 7.274008065327427e-26 -7.128204777038864e-26 7.138357337246012e-26 3.393303808767405" Properties=species:S:1:pos:R:3:Z:I:1:forces:R:3 stress="-0.05114585236670398 7.73988764174583e-18 2.4526562620478035e-26 7.73988764174583e-18 -0.05114585236670401 -5.163225701034022e-26 2.4526562620478035e-26 -5.163225701034022e-26 -0.051140364133015245" energy=-325.402714295 Minim_Constant_Volume=T Minim_Hydrostatic_Strain=F pbc="T T T"
Si       0.00000000      -0.00000000      -0.00000000       14       0.00000000      -0.00000000       0.00000000 
Si      -0.00000000       1.76587499       1.69665190       14      -0.00000000       0.00000000      -0.00000000 
2
Lattice="3.0194480636841257 -3.9462968772741214e-17 -3.491826845657251e-26 -1.5097240318420624 2.6149187285581865 3.477282498847888e-26 -4.1447037516331544e-26 3.867769409453813e-26 3.3879343222820224" Properties=species:S:1:pos:R:3:Z:I:1:forces:R:3 stress="-0.10461706406365633 1.8200084861197177e-17 -6.018011343291908e-26 1.8200084861197177e-17 -0.10461706406365623 -9.043116431256734e-27 -6.018011343291908e-26 -9.043116431256734e-27 -0.10439597751168848" energy=-325.346487744 Minim_Constant_Volume=T Minim_Hydrostatic_Strain=F pbc="T T T"
Si       0.00000000      -0.00000000      -0.00000000       14      -0.00000000       0.00000000       0.00000000 
Si      -0.00000000       1.74327915       1.69396716       14       0.00000000      -0.00000000      -0.00000000 
2
Lattice="2.97900506825485 -2.869208848445572e-17 -1.0347433396289182e-26 -1.4895025341274246 2.579894067111296 1.1419157875279112e-25 -1.3369836458706472e-26 1.570002718151361e-25 3.383839978092067" Properties=species:S:1:pos:R:3:Z:I:1:forces:R:3 stress="-0.17156571577452426 -8.318812557143035e-17 -4.125860666711431e-26 -8.318812557143035e-17 -0.17156571577452412 5.769453794264674e-26 -4.125860666711431e-26 5.769453794264674e-26 -0.17138772752335063" energy=-325.243679826 Minim_Constant_Volume=T Minim_Hydrostatic_Strain=F pbc="T T T"
Si       0.00000000       0.00000000      -0.00000000       14       0.00000000      -0.00000000      -0.00000000 
Si      -0.00000000       1.71992938       1.69191999       14      -0.00000000       0.00000000       0.00000000 
2
Lattice="3.2472527292222764 1.939425344370783e-18 1.3518594183353072e-26 -1.6236263646111375 2.8122033560148423 -9.411970372328535e-26 1.2879901600432083e-26 -9.773727770357763e-26 3.3360754701743733" Properties=species:S:1:pos:R:3:Z:I:1:forces:R:3 stress="0.012965332731596427 4.968303648070471e-18 -6.442244979014694e-28 4.968303648070471e-18 0.012965332731596418 -7.760314869388443e-28 -6.442244979014694e-28 -7.760314869388443e-28 0.012982922399483525" energy=-325.433779554 Minim_Constant_Volume=T Minim_Hydrostatic_Strain=F pbc="T T T"
Si       0.00000000      -0.00000000      -0.00000000       14       0.00000000      -0.00000000       0.00000000 
Si      -0.00000000       1.87480224       1.66803774       14       0.00000000      -0.00000000       0.00000000 
2
Lattice="3.2842469518846946 -1.3203600249544542e-17 1.9151643425750777e-26 -1.6421234759423466 2.844241292633755 -9.026437053622097e-26 1.879348246195508e-26 -9.078466039001186e-26 3.340947852211529" Properties=species:S:1:pos:R:3:Z:I:1:forces:R:3 stress="0.021704528580838277 -1.0449487733242086e-18 -1.1086508288899855e-27 -1.0449487733242086e-18 0.021704528580838264 -1.0344636283905557e-26 -1.1086508288899855e-27 -1.0344636283905557e-26 0.021705339700234777" energy=-325.420674943 Minim_Constant_Volume=T Minim_Hydrostatic_Strain=F pbc="T T T"
Si       0.00000000      -0.00000000      -0.00000000       14      -0.00000000       0.00000000       0.00000000 
Si       0.00000000       1.89616086       1.67047393       14       0.00000000      -0.00000000      -0.00000000 
2
Lattice="3.3219325000692206 2.125908213699012e-17 1.271706046505785e-26 -1.6609662500346096 2.876877934717097 -3.021495061367349e-26 1.2449695261495848e-26 -2.5002370107240207e-26 3.343307980894988" Properties=species:S:1:pos:R:3:Z:I:1:forces:R:3 stress="0.025617378990756938 2.2001011858373736e-17 -5.3158436784343815e-28 2.2001011858373736e-17 0.025617378990756935 -2.3631874862457025e-27 -5.3158436784343815e-28 -2.3631874862457025e-27 0.025646587143700703" energy=-325.40285818 Minim_Constant_Volume=T Minim_Hydrostatic_Strain=F pbc="T T T"
Si       0.00000000      -0.00000000       0.00000000       14      -0.00000000       0.00000000      -0.00000000 
Si       0.00000000       1.91791862       1.67165399       14       0.00000000      -0.00000000       0.00000000 
2
Lattice="3.3585582600313146 6.793944041064761e-18 1.6145029630352076e-26 -1.6792791300156567 2.9085967732771816 -1.063610781006413e-25 1.602334976906798e-26 -1.1174836855551302e-25 3.346869902004086" Properties=species:S:1:pos:R:3:Z:I:1:forces:R:3 stress="0.027423200607901432 6.251264242900561e-18 -1.4473866899134313e-27 6.251264242900561e-18 0.02742320060790141 -3.789800651351005e-27 -1.4473866899134313e-27 -3.789800651351005e-27 0.027410333543089825" energy=-325.383042259 Minim_Constant_Volume=T Minim_Hydrostatic_Strain=F pbc="T T T"
Si       0.00000000      -0.00000000       0.00000000       14       0.00000000      -0.00000000       0.00000000 
Si      -0.00000000       1.93906452       1.67343495       14      -0.00000000       0.00000000      -0.00000000 
2
Lattice="3.399626159722179 2.589262389518491e-17 2.718077272740518e-26 -1.6998130798610889 2.9441626176895412 -8.945371272993534e-26 2.7246632066437075e-26 -8.752148512072273e-26 3.340626139806303" Properties=species:S:1:pos:R:3:Z:I:1:forces:R:3 stress="0.024003775183244928 5.329209860133161e-18 -1.2561175141010295e-27 5.329209860133161e-18 0.024003775183244907 -1.2576005245556695e-27 -1.2561175141010295e-27 -1.2576005245556695e-27 0.024043298446101726" energy=-325.363786363 Minim_Constant_Volume=T Minim_Hydrostatic_Strain=F pbc="T T T"
Si       0.00000000      -0.00000000       0.00000000       14       0.00000000      -0.00000000       0.00000000 
Si       0.00000000       1.96277508       1.67031307       14       0.00000000      -0.00000000       0.00000000 
2
Lattice="3.4405829959743857 -2.707852191269039e-17 3.7330348511376745e-26 -1.7202914979871922 2.9796322783425913 -1.910619607325156e-25 3.7600916268982044e-26 -1.9827815935727354e-25 3.3340471723091776" Properties=species:S:1:pos:R:3:Z:I:1:forces:R:3 stress="0.021149694007041565 -1.5180383193593187e-18 -3.5025349547343994e-27 -1.5180383193593187e-18 0.02114969400704156 -1.073523314851413e-27 -3.5025349547343994e-27 -1.073523314851413e-27 0.02115925443509713" energy=-325.347074306 Minim_Constant_Volume=T Minim_Hydrostatic_Strain=F pbc="T T T"
Si       0.00000000      -0.00000000       0.00000000       14      -0.00000000       0.00000000      -0.00000000 
Si       0.00000000       1.98642152       1.66702359       14       0.00000000      -0.00000000       0.00000000 
