2
Lattice="2.948829940713908 6.868244152870983e-19 3.4028658934931095e-28 -1.4744149703569533 2.553761640098405 -9.272582168808578e-28 5.296759789920982e-28 -1.3970465429081765e-27 4.764878366881165" Properties=species:S:1:pos:R:3:Z:I:1:forces:R:3 stress="0.0005594247322102153 -3.2526065174565133e-19 6.118184039450383e-28 -3.2526065174565133e-19 0.0005594247322102143 1.766915305246009e-27 6.118184039450383e-28 1.766915305246009e-27 0.0006419446349343876" energy=-12.1401481168 Minim_Constant_Volume=T Minim_Hydrostatic_Strain=F pbc="T T T"
Ti       0.00000000      -0.00000000      -0.00000000       22       0.00000000       0.00000000       0.00000000 
Ti       0.00000000       1.70250776       2.38243918       22       0.00000000       0.00000000       0.00000000 
2
Lattice="2.9249331563116043 -3.758863826357452e-17 -2.56860476778351e-27 -1.4624665781558015 2.5330664177372504 -6.654642491114038e-27 -4.170009189111743e-27 -1.4798498980207596e-26 4.72197712802524" Properties=species:S:1:pos:R:3:Z:I:1:forces:R:3 stress="-0.01605809014862161 5.204170427930421e-18 2.964765187289452e-28 5.204170427930421e-18 -0.0160580901486216 -6.0390718054056325e-28 2.964765187289452e-28 -6.0390718054056325e-28 -0.01606322652096057" energy=-12.1333356737 Minim_Constant_Volume=T Minim_Hydrostatic_Strain=F pbc="T T T"
Ti       0.00000000      -0.00000000       0.00000000       22       0.00000000      -0.00000000       0.00000000 
Ti       0.00000000       1.68871095       2.36098856       22      -0.00000000       0.00000000      -0.00000000 
2
Lattice="2.900639516821811 -8.041372517463597e-17 1.2124812202944823e-27 -1.4503197584109049 2.5120275087887083 -3.534313673854757e-27 1.9304015904861658e-27 -5.47156459137803e-27 4.678290960440733" Properties=species:S:1:pos:R:3:Z:I:1:forces:R:3 stress="-0.03493639546261253 8.06431543058781e-55 -2.467128640410071e-29 8.06431543058781e-55 -0.034936395462612506 -2.365724415761809e-28 -2.467128640410071e-29 -2.365724415761809e-28 -0.03493549600423702" energy=-12.110675343 Minim_Constant_Volume=T Minim_Hydrostatic_Strain=F pbc="T T T"
Ti       0.00000000      -0.00000000       0.00000000       22      -0.00000000       0.00000000       0.00000000 
Ti       0.00000000       1.67468501       2.33914548       22       0.00000000      -0.00000000      -0.00000000 
2
Lattice="2.874063770410555 -7.967697220832214e-17 -1.499060993286468e-27 -1.4370318852052768 2.4890122372720276 -6.204742631449562e-27 -2.444504779962615e-27 -1.2964509854199868e-26 4.639808723776222" Properties=species:S:1:pos:R:3:Z:I:1:forces:R:3 stress="-0.05580220457824501 -5.302904479715811e-54 7.6987287446134e-28 -5.302904479715811e-54 -0.055802204578244925 5.872860056896467e-28 7.6987287446134e-28 5.872860056896467e-28 -0.0557908806549774" energy=-12.0701329994 Minim_Constant_Volume=T Minim_Hydrostatic_Strain=F pbc="T T T"
Ti       0.00000000       0.00000000       0.00000000       22      -0.00000000      -0.00000000      -0.00000000 
Ti       0.00000000       1.65934149       2.31990436       22       0.00000000      -0.00000000       0.00000000 
2
Lattice="2.846873841714101 -4.9146057439952317e-17 -1.5381196882891358e-27 -1.4234369208570499 2.4654650682938106 -5.503463847608843e-27 -2.5046486736732985e-27 -1.1679284796377993e-26 4.6010521801544995" Properties=species:S:1:pos:R:3:Z:I:1:forces:R:3 stress="-0.07891776746860812 4.85722573273506e-17 9.77107755625582e-29 4.85722573273506e-17 -0.0789177674686081 1.280660905887324e-28 9.77107755625582e-29 1.280660905887324e-28 -0.0789151091148637" energy=-12.0098769941 Minim_Constant_Volume=T Minim_Hydrostatic_Strain=F pbc="T T T"
Ti       0.00000000      -0.00000000       0.00000000       22      -0.00000000      -0.00000000       0.00000000 
Ti       0.00000000       1.64364338       2.30052609       22       0.00000000       0.00000000      -0.00000000 
2
Lattice="2.8202663786928004 -4.8686728372813565e-17 -1.5237441082655946e-27 -1.4101331893463995 2.4424223293871092 -5.452027353069222e-27 -2.4812397168064266e-27 -1.1570127820827662e-26 4.558049808939896" Properties=species:S:1:pos:R:3:Z:I:1:forces:R:3 stress="-0.10419069441506193 3.469446951953614e-17 2.9668133798059837e-28 3.469446951953614e-17 -0.10419069441506186 -8.948910836054765e-28 2.9668133798059837e-28 -8.948910836054765e-28 -0.10424770459391125" energy=-11.9278926806 Minim_Constant_Volume=T Minim_Hydrostatic_Strain=F pbc="T T T"
Ti       0.00000000      -0.00000000       0.00000000       22      -0.00000000       0.00000000      -0.00000000 
Ti       0.00000000       1.62828155       2.27902490       22       0.00000000      -0.00000000       0.00000000 
2
Lattice="2.9732015413106194 6.925009075453784e-19 3.430990027508212e-28 -1.486600770655309 2.574868065346045 -9.349218554650373e-28 5.340536649438837e-28 -1.4085929057176004e-27 4.8042593128103235" Properties=species:S:1:pos:R:3:Z:I:1:forces:R:3 stress="0.01577537989254545 -8.673617379884035e-18 -5.631777270448805e-28 -8.673617379884035e-18 0.015775379892545443 3.0944657635822836e-28 -5.631777270448805e-28 3.0944657635822836e-28 0.015916399103455756" energy=-12.1326970208 Minim_Constant_Volume=T Minim_Hydrostatic_Strain=F pbc="T T T"
Ti       0.00000000      -0.00000000      -0.00000000       22       0.00000000       0.00000000       0.00000000 
Ti       0.00000000       1.71657871       2.40212966       22       0.00000000      -0.00000000       0.00000000 
2
Lattice="2.9971800086081766 6.980858334692987e-19 3.4586604968759177e-28 -1.4985900043040876 2.595634027169544 -9.42461873464341e-28 5.383607353399096e-28 -1.4199530165126565e-27 4.843005012763925" Properties=species:S:1:pos:R:3:Z:I:1:forces:R:3 stress="0.029870616184265373 -1.3877787807814457e-17 -6.640207264525623e-29 -1.3877787807814457e-17 0.029870616184265317 -4.972523749102371e-28 -6.640207264525623e-29 -4.972523749102371e-28 0.02987882811080845" energy=-12.1120923145 Minim_Constant_Volume=T Minim_Hydrostatic_Strain=F pbc="T T T"
Ti       0.00000000      -0.00000000      -0.00000000       22       0.00000000       0.00000000       0.00000000 
Ti       0.00000000       1.73042268       2.42150251       22      -0.00000000       0.00000000      -0.00000000 
2
Lattice="3.019892104381541 1.0678588147305907e-16 3.4322172776065125e-27 -1.50994605219077 2.6153032790824633 -3.2058086203201567e-27 5.524800858225814e-27 -2.7622706521095993e-27 4.884012559242004" Properties=species:S:1:pos:R:3:Z:I:1:forces:R:3 stress="0.04247875909929459 -2.42861286636753e-17 -6.44037909472512e-28 -2.42861286636753e-17 0.042478759099294515 -1.870142261526636e-27 -6.44037909472512e-28 -1.870142261526636e-27 0.04248361418793725" energy=-12.079567055 Minim_Constant_Volume=T Minim_Hydrostatic_Strain=F pbc="T T T"
Ti       0.00000000      -0.00000000      -0.00000000       22       0.00000000      -0.00000000      -0.00000000 
Ti       0.00000000       1.74353552       2.44200628       22       0.00000000      -0.00000000       0.00000000 
2
Lattice="3.04129308006452 1.8524080361316641e-16 6.3873671640428386e-27 -1.5206465400322593 2.6338370676896963 3.830262228855509e-27 1.0293830503677965e-26 1.3141944512127937e-26 4.927503487898896" Properties=species:S:1:pos:R:3:Z:I:1:forces:R:3 stress="0.05396510397165763 -6.938893903907228e-18 -1.4867173270999288e-27 -6.938893903907228e-18 0.05396510397165754 -1.9353642258638157e-27 -1.4867173270999288e-27 -1.9353642258638157e-27 0.053933505906208434" energy=-12.0362142938 Minim_Constant_Volume=T Minim_Hydrostatic_Strain=F pbc="T T T"
Ti       0.00000000      -0.00000000      -0.00000000       22       0.00000000      -0.00000000       0.00000000 
Ti      -0.00000000       1.75589138       2.46375174       22      -0.00000000       0.00000000      -0.00000000 
2
Lattice="3.064161911786731 1.866337113844315e-16 6.435396611050087e-27 -1.5320809558933648 2.653642056916002 3.8590636695774856e-27 1.0371234381360341e-26 1.324076462240291e-26 4.964555572360607" Properties=species:S:1:pos:R:3:Z:I:1:forces:R:3 stress="0.06409556682505871 -1.3877787807814457e-17 -1.0814849390934305e-27 -1.3877787807814457e-17 0.06409556682505864 -3.0161979103487115e-27 -1.0814849390934305e-27 -3.0161979103487115e-27 0.06396219536971103" energy=-11.9831706401 Minim_Constant_Volume=T Minim_Hydrostatic_Strain=F pbc="T T T"
Ti       0.00000000      -0.00000000      -0.00000000       22       0.00000000       0.00000000      -0.00000000 
Ti       0.00000000       1.76909470       2.48227779       22       0.00000000       0.00000000       0.00000000 
2
Lattice="3.083982246695445 3.9879023643860774e-16 1.460947813781608e-26 -1.5419911233477217 2.670806970458465 2.431226387672117e-26 2.3586848636691959e-26 5.911664194969224e-26 5.009845941712198" Properties=species:S:1:pos:R:3:Z:I:1:forces:R:3 stress="0.07243195345138954 -2.7755575615628914e-17 -1.440648678445248e-27 -2.7755575615628914e-17 0.07243195345138939 -4.137219620656631e-27 -1.440648678445248e-27 -4.137219620656631e-27 0.07257669905456092" energy=-11.921811218 Minim_Constant_Volume=T Minim_Hydrostatic_Strain=F pbc="T T T"
Ti       0.00000000      -0.00000000      -0.00000000       22      -0.00000000       0.00000000       0.00000000 
Ti      -0.00000000       1.78053798       2.50492297       22      -0.00000000       0.00000000      -0.00000000 
