1
Lattice="2.6509402262285917 9.91779804631394e-18 -4.22180330507969e-32 1.3254701131142959 2.2957815798280268 4.723599524458489e-32 -4.5306843371002255e-32 8.458474347647166e-32 2.467547518728705" Properties=species:S:1:pos:R:3:Z:I:1:forces:R:3 stress="1.1786311436844023e-05 5.9881666093483165e-21 7.354462826361051e-37 5.9881666093483165e-21 1.1786311436844033e-05 -3.182021916865192e-36 7.354462826361051e-37 -3.182021916865192e-36 -7.897412798746226e-05" energy=-162.839356995 Minim_Constant_Volume=T Minim_Hydrostatic_Strain=F pbc="T T T"
Si       0.00000000       0.00000000       0.00000000       14       0.00000000       0.00000000       0.00000000 
1
Lattice="2.624685971163249 1.4711397386224176e-17 -5.498543061587645e-32 1.3123429855816244 2.273044727984004 5.587728241380577e-34 -5.695463549249628e-32 4.0835782673911797e-32 2.4542134555175523" Properties=species:S:1:pos:R:3:Z:I:1:forces:R:3 stress="-0.022919062125441772 -5.970545085638048e-18 1.4334649770392282e-32 -5.970545085638048e-18 -0.022919062125441782 -8.285542654417157e-33 1.4334649770392282e-32 -8.285542654417157e-33 -0.022923622097088255" energy=-162.835010386 Minim_Constant_Volume=T Minim_Hydrostatic_Strain=F pbc="T T T"
Si       0.00000000       0.00000000       0.00000000       14       0.00000000       0.00000000       0.00000000 
1
Lattice="2.6000114060648043 -1.0508776913491749e-18 -7.049159088398523e-33 1.3000057030324021 2.251675927781418 4.5901472364198903e-32 -1.1959089540789575e-32 6.374373590546662e-32 2.436899865058077" Properties=species:S:1:pos:R:3:Z:I:1:forces:R:3 stress="-0.04738713624460753 1.044283847520543e-17 2.145149376868205e-32 1.044283847520543e-17 -0.04738713624460755 -3.6726539267639463e-32 2.145149376868205e-32 -3.6726539267639463e-32 -0.04738909648519994" energy=-162.821744079 Minim_Constant_Volume=T Minim_Hydrostatic_Strain=F pbc="T T T"
Si       0.00000000       0.00000000       0.00000000       14       0.00000000       0.00000000       0.00000000 
1
Lattice="2.576289756137533 7.142324693409027e-18 7.619712324444175e-32 1.2881448780687665 2.23113237632472 -3.8192981588261656e-32 6.611901037551585e-32 -7.245299641561166e-32 2.4166714702990935" Properties=species:S:1:pos:R:3:Z:I:1:forces:R:3 stress="-0.07008983826150585 -2.3282500215356675e-17 8.74340685418437e-32 -2.3282500215356675e-17 -0.07008983826150582 -5.0305264810029e-32 8.74340685418437e-32 -5.0305264810029e-32 -0.07010201073193319" energy=-162.799688064 Minim_Constant_Volume=T Minim_Hydrostatic_Strain=F pbc="T T T"
Si       0.00000000       0.00000000       0.00000000       14       0.00000000       0.00000000       0.00000000 
1
Lattice="2.552132633862263 4.342254406723449e-17 7.167181505467891e-32 1.2760663169311315 2.210211694752009 -1.3054434894517722e-30 6.186311569947931e-32 -1.4426609130115793e-30 2.3960800058055423" Properties=species:S:1:pos:R:3:Z:I:1:forces:R:3 stress="-0.0993951022620602 3.162259538269729e-17 -6.955672362115953e-32 3.162259538269729e-17 -0.09939510226206028 3.556709504601201e-32 -6.955672362115953e-32 3.556709504601201e-32 -0.09942158214827419" energy=-162.768174332 Minim_Constant_Volume=T Minim_Hydrostatic_Strain=F pbc="T T T"
Si       0.00000000       0.00000000       0.00000000       14       0.00000000       0.00000000       0.00000000 
1
Lattice="2.5275556553424026 3.853046047669296e-17 -3.994221053473157e-31 1.2637778276712013 2.1889274070055453 -1.3152226253992738e-30 -3.8043032837699175e-31 -1.1967793592152113e-30 2.3750452430408635" Properties=species:S:1:pos:R:3:Z:I:1:forces:R:3 stress="-0.1299073300745797 5.457177081534387e-17 -2.9665320270122855e-31 5.457177081534387e-17 -0.1299073300745798 -1.0280072801474735e-31 -2.9665320270122855e-31 -1.0280072801474735e-31 -0.12996585528809462" energy=-162.725089315 Minim_Constant_Volume=T Minim_Hydrostatic_Strain=F pbc="T T T"
Si       0.00000000       0.00000000       0.00000000       14       0.00000000       0.00000000       0.00000000 
1
Lattice="2.6779684931165293 -9.994860848300781e-19 -4.4646635232514216e-32 1.3389842465582646 2.319188745573246 4.6820447395771166e-32 -4.7856341970793595e-32 8.598221930635342e-32 2.47841226807657" Properties=species:S:1:pos:R:3:Z:I:1:forces:R:3 stress="0.02519573505581499 -1.890776207275081e-18 4.959345202396243e-34 -1.890776207275081e-18 0.02519573505581503 2.7635195355819157e-34 4.959345202396243e-34 2.7635195355819157e-34 0.02527338554374527" energy=-162.834544658 Minim_Constant_Volume=T Minim_Hydrostatic_Strain=F pbc="T T T"
Si       0.00000000       0.00000000       0.00000000       14       0.00000000       0.00000000       0.00000000 
1
Lattice="2.704271422973219 5.312528812540574e-18 -6.833376737498534e-32 1.3521357114866095 2.341967751023099 1.9353694628259796e-32 -7.00599153657726e-32 6.979386831156471e-32 2.4897181798104295" Properties=species:S:1:pos:R:3:Z:I:1:forces:R:3 stress="0.04312807107756118 -9.927164408783293e-18 1.888419921872991e-33 -9.927164408783293e-18 0.04312807107756121 -6.476787561393451e-34 1.888419921872991e-33 -6.476787561393451e-34 0.043060947571855857" energy=-162.821670324 Minim_Constant_Volume=T Minim_Hydrostatic_Strain=F pbc="T T T"
Si       0.00000000       0.00000000       0.00000000       14       0.00000000       0.00000000       0.00000000 
1
Lattice="2.7262515157519185 -4.7712302185115916e-18 -7.935134941992681e-32 1.3631257578759592 2.3610030697469915 1.254410560582436e-32 -8.030875596492645e-32 6.855859152784025e-32 2.5080831997992323" Properties=species:S:1:pos:R:3:Z:I:1:forces:R:3 stress="0.06206626977897437 -2.7682598641761373e-17 3.253417258608031e-33 -2.7682598641761373e-17 0.06206626977897448 -1.0709014689178322e-33 3.253417258608031e-33 -1.0709014689178322e-33 0.06214046302813692" energy=-162.801602204 Minim_Constant_Volume=T Minim_Hydrostatic_Strain=F pbc="T T T"
Si       0.00000000       0.00000000       0.00000000       14       0.00000000       0.00000000       0.00000000 
1
Lattice="2.7503837205265573 -2.774351022422829e-17 -1.0636236363711858e-31 1.3751918602632787 2.381902172131157 -3.265367023589555e-33 -1.0547674889832776e-31 6.641982995515175e-32 2.5215627365244324" Properties=species:S:1:pos:R:3:Z:I:1:forces:R:3 stress="0.07216774806816341 -2.0129588004812724e-17 5.432749968793971e-33 -2.0129588004812724e-17 0.07216774806816352 -2.6608524570886684e-33 5.432749968793971e-33 -2.6608524570886684e-33 0.07223997233277346" energy=-162.776162158 Minim_Constant_Volume=T Minim_Hydrostatic_Strain=F pbc="T T T"
Si       0.00000000       0.00000000       0.00000000       14       0.00000000       0.00000000       0.00000000 
1
Lattice="2.7755524813231114 -1.518834122568024e-16 -1.1725708986804888e-31 1.3877762406615557 2.403698958362746 -4.126895083151891e-33 -1.1601496174888336e-31 7.16572896571364e-32 2.5323026791554066" Properties=species:S:1:pos:R:3:Z:I:1:forces:R:3 stress="0.07754546223125286 3.822432801286445e-17 6.810461687767656e-34 3.822432801286445e-17 0.07754546223125305 3.039054556591621e-34 6.810461687767656e-34 3.039054556591621e-34 0.07764405910927945" energy=-162.747984624 Minim_Constant_Volume=T Minim_Hydrostatic_Strain=F pbc="T T T"
Si       0.00000000       0.00000000       0.00000000       14       0.00000000       0.00000000       0.00000000 
1
Lattice="2.8000184942374546 -1.5994409813658782e-16 -1.3015122403468197e-31 1.4000092471187273 2.424887147075885 -5.174063331357308e-33 -1.283269358190565e-31 7.772292979548083e-32 2.5435407532794314" Properties=species:S:1:pos:R:3:Z:I:1:forces:R:3 stress="0.0818239940486697 8.232901298655257e-18 7.475886318922152e-33 8.232901298655257e-18 0.08182399404866994 -3.368466972688488e-33 7.475886318922152e-33 -3.368466972688488e-33 0.08186273042360671" energy=-162.718079404 Minim_Constant_Volume=T Minim_Hydrostatic_Strain=F pbc="T T T"
Si       0.00000000       0.00000000       0.00000000       14       0.00000000       0.00000000       0.00000000 
