4
Lattice="1.9193831017808074 -3.324469053084449 0.0 1.9193831017808074 3.324469053084449 0.0 0.0 0.0 6.268678975816093" Properties=species:S:1:pos:R:3:Z:I:1:forces:R:3 cutoff=-1.0 stress="-0.0007405506982829612 -2.0368820450594543e-19 -6.829540798425616e-34 -2.0368820450594543e-19 -0.0007405506975652608 -3.943037216501877e-34 -6.829540798425616e-34 -3.943037216501877e-34 -0.0007405501889594877" Minim_Constant_Volume=T nneightol=1.2 pbc="T T T" energy=-17.3399653991 Minim_Hydrostatic_Strain=F
Si       1.91938310       1.10815635       0.39179244       14       0.00000000       0.00000000      -0.00000003 
Si       1.91938310      -1.10815635       3.52613192       14      -0.00000000      -0.00000000      -0.00000003 
Si       1.91938310       1.10815635       2.74254705       14       0.00000000       0.00000000       0.00000003 
Si       1.91938310      -1.10815635      -0.39179244       14      -0.00000000      -0.00000000       0.00000003 
