12
Lattice="5.847128232153892 1.0376785616112822e-45 -3.902110991729448e-27 1.0982454448224857e-45 5.847128232153892 7.786718276409746e-20 -4.6781174159735045e-27 3.3393704928667245e-19 6.886454431691421" Properties=species:S:1:pos:R:3:Z:I:1:forces:R:3 cutoff=-1.0 stress="1.2132163449343626e-05 7.561424923183073e-56 -5.105360804690348e-32 7.561424923183073e-56 1.2132163449343626e-05 -8.024575825805817e-29 -5.105360804690348e-32 -8.024575825805817e-29 6.292718989461356e-05" Minim_Constant_Volume=T nneightol=1.2 pbc="T T T" energy=-1956.37058737 Minim_Hydrostatic_Strain=F
Si       0.48250561       0.48250561      -0.00000000       14      -0.00133752      -0.00133752      -0.00000000 
Si      -0.48250561      -0.48250561       3.44322722       14       0.00133752       0.00133752       0.00000000 
Si       2.44105850       3.40606973       5.16484083       14       0.00133752      -0.00133752      -0.00000000 
Si       3.40606973       2.44105850       1.72161361       14      -0.00133752       0.00133752       0.00000000 
Si       0.72780384       3.93851985      -0.11741810       14      -0.00118503      -0.00003268       0.00089628 
Si       1.01495573       2.19576027       1.60419550       14      -0.00003268       0.00118503       0.00089628 
Si       1.90860838       5.11932439       3.56064533       14       0.00003268       0.00118503      -0.00089628 
Si       2.19576027       1.01495573       5.28225893       14       0.00118503      -0.00003268      -0.00089628 
Si       3.65136796       4.83217250       1.83903171       14      -0.00118503       0.00003268      -0.00089628 
Si       3.93851985       0.72780384       0.11741810       14      -0.00003268      -0.00118503      -0.00089628 
Si       4.83217250       3.65136796       5.04742272       14       0.00003268      -0.00118503       0.00089628 
Si       5.11932439       1.90860838       3.32580911       14       0.00118503       0.00003268       0.00089628 
12
Lattice="5.802582348995037 -2.753561260623158e-44 -3.915959008180371e-27 -1.511227533620321e-45 5.802582348995037 3.90807683788912e-17 -4.704668647858587e-27 4.6326928780355914e-17 6.817758033230983" Properties=species:S:1:pos:R:3:Z:I:1:forces:R:3 cutoff=-1.0 stress="-0.01647286743388691 2.489863068517731e-54 4.320011329816072e-30 2.489863068517731e-54 -0.01647286743388691 5.625529871454963e-76 4.320011329816072e-30 5.625529871454963e-76 -0.01646721049100221" Minim_Constant_Volume=T nneightol=1.2 pbc="T T T" energy=-1956.32213962 Minim_Hydrostatic_Strain=F
Si       0.48213800       0.48213800       0.00000000       14      -0.00029624      -0.00029624      -0.00000000 
Si      -0.48213800      -0.48213800       3.40887902       14       0.00029624       0.00029624       0.00000000 
Si       2.41915317       3.38342918       5.11331853       14       0.00029624      -0.00029624      -0.00000000 
Si       3.38342918       2.41915317       1.70443951       14      -0.00029624       0.00029624       0.00000000 
Si       0.71445270       3.91222917      -0.11455582       14       0.00016409       0.00050818       0.00009135 
Si       1.01093799       2.18683846       1.58988368       14       0.00050818      -0.00016409       0.00009135 
Si       1.89035318       5.08812964       3.52343485       14      -0.00050818      -0.00016409      -0.00009135 
Si       2.18683846       1.01093799       5.22787435       14      -0.00016409       0.00050818      -0.00009135 
Si       3.61574388       4.79164436       1.81899533       14       0.00016409      -0.00050818      -0.00009135 
Si       3.91222917       0.71445270       0.11455582       14       0.00050818       0.00016409      -0.00009135 
Si       4.79164436       3.61574388       4.99876270       14      -0.00050818       0.00016409       0.00009135 
Si       5.08812964       1.89035318       3.29432319       14      -0.00016409      -0.00050818       0.00009135 
12
Lattice="5.755959057340213 -2.731436610152998e-44 -4.007799738689692e-27 -2.376212254592107e-45 5.755959057340213 3.869812226085077e-17 -4.819884517393839e-27 4.59546955394411e-17 6.751004265788153" Properties=species:S:1:pos:R:3:Z:I:1:forces:R:3 cutoff=-1.0 stress="-0.033281636919561715 -1.0208312110028674e-54 8.925623786291348e-30 -1.0208312110028674e-54 -0.033281636919561715 1.0394038378730983e-27 8.925623786291348e-30 1.0394038378730983e-27 -0.03328176983547633" Minim_Constant_Volume=T nneightol=1.2 pbc="T T T" energy=-1956.17594946 Minim_Hydrostatic_Strain=F
Si       0.48188149       0.48188149       0.00000000       14      -0.00004594      -0.00004594      -0.00000000 
Si      -0.48188149      -0.48188149       3.37550214       14       0.00004594       0.00004594       0.00000000 
Si       2.39609804       3.35986102       5.06325320       14       0.00004594      -0.00004594      -0.00000000 
Si       3.35986102       2.39609804       1.68775106       14      -0.00004594       0.00004594       0.00000000 
Si       0.70002077       3.88457788      -0.11121740       14      -0.00018539      -0.00018490       0.00014721 
Si       1.00659835       2.17795875       1.57653366       14      -0.00018490       0.00018539       0.00014721 
Si       1.87138118       5.05593828       3.48671954       14       0.00018490       0.00018539      -0.00014721 
Si       2.17795875       1.00659835       5.17447060       14       0.00018539      -0.00018490      -0.00014721 
Si       3.57800031       4.74936071       1.79896846       14      -0.00018539       0.00018490      -0.00014721 
Si       3.88457788       0.70002077       0.11121740       14      -0.00018490      -0.00018539      -0.00014721 
Si       4.74936071       3.57800031       4.95203580       14       0.00018490      -0.00018539       0.00014721 
Si       5.05593828       1.87138118       3.26428473       14       0.00018539       0.00018490       0.00014721 
12
Lattice="5.707842814462831 -1.1233942003983268e-43 -4.207749292660651e-27 -2.711987780056113e-44 5.707842814462831 1.2810968268493378e-16 -5.060409924738328e-27 1.5093645635642583e-16 6.684641344167668" Properties=species:S:1:pos:R:3:Z:I:1:forces:R:3 cutoff=-1.0 stress="-0.05074102943678268 -2.6378574821693607e-54 1.427127503269019e-29 -2.6378574821693607e-54 -0.050741029436782666 2.540572078615192e-27 1.427127503269019e-29 2.540572078615192e-27 -0.05074028736640778" Minim_Constant_Volume=T nneightol=1.2 pbc="T T T" energy=-1955.92906521 Minim_Hydrostatic_Strain=F
Si       0.48338108       0.48338108       0.00000000       14       0.00000448       0.00000448       0.00000000 
Si      -0.48338108      -0.48338108       3.34232068       14      -0.00000448      -0.00000448      -0.00000000 
Si       2.37054032       3.33730249       5.01348101       14      -0.00000448       0.00000448       0.00000000 
Si       3.33730249       2.37054032       1.67116033       14       0.00000448      -0.00000448      -0.00000000 
Si       0.68513245       3.85680824      -0.10435030       14       0.00005560      -0.00006138       0.00000038 
Si       1.00288683       2.16878895       1.56681004       14      -0.00006138      -0.00005560       0.00000038 
Si       1.85103457       5.02271037       3.44667097       14       0.00006138      -0.00005560      -0.00000038 
Si       2.16878895       1.00288683       5.11783131       14      -0.00005560      -0.00006138      -0.00000038 
Si       3.53905386       4.70495599       1.77551063       14       0.00005560       0.00006138      -0.00000038 
Si       3.85680824       0.68513245       0.10435030       14      -0.00006138       0.00005560      -0.00000038 
Si       4.70495599       3.53905386       4.90913072       14       0.00006138       0.00005560       0.00000038 
Si       5.02271037       1.85103457       3.23797037       14      -0.00005560       0.00006138       0.00000038 
12
Lattice="5.657015714986927 -1.5438182312282525e-43 -4.3265975195424366e-27 -4.1535227625846924e-44 5.657015714986927 1.697219754359749e-16 -5.2011843420321206e-27 1.9974118271199745e-16 6.621381202369877" Properties=species:S:1:pos:R:3:Z:I:1:forces:R:3 cutoff=-1.0 stress="-0.06878953721719043 2.2279822841718973e-54 1.980019660465605e-29 2.2279822841718973e-54 -0.06878953721719043 -2.415363149787179e-27 1.980019660465605e-29 -2.415363149787179e-27 -0.06861009442593828" Minim_Constant_Volume=T nneightol=1.2 pbc="T T T" energy=-1955.57746438 Minim_Hydrostatic_Strain=F
Si       0.48954184       0.48954184       0.00000000       14      -0.00023318      -0.00023318      -0.00000000 
Si      -0.48954184      -0.48954184       3.31069061       14       0.00023318       0.00023318       0.00000000 
Si       2.33896601       3.31804970       4.96603590       14       0.00023318      -0.00023318      -0.00000000 
Si       3.31804970       2.33896601       1.65534530       14      -0.00023318       0.00023318       0.00000000 
Si       0.67004391       3.82960356      -0.08961384       14       0.00009789       0.00084193      -0.00033135 
Si       1.00109570       2.15846394       1.56573146       14       0.00084193      -0.00009789      -0.00033135 
Si       1.82741215       4.98697180       3.40030444       14      -0.00084193      -0.00009789       0.00033135 
Si       2.15846394       1.00109570       5.05564974       14      -0.00009789       0.00084193       0.00033135 
Si       3.49855177       4.65592002       1.74495913       14       0.00009789      -0.00084193       0.00033135 
Si       3.82960356       0.67004391       0.08961384       14       0.00084193       0.00009789       0.00033135 
Si       4.65592002       3.49855177       4.87642207       14      -0.00084193       0.00009789      -0.00033135 
Si       4.98697180       1.82741215       3.22107676       14      -0.00009789      -0.00084193      -0.00033135 
12
Lattice="5.606039291598866 -2.3663477257545116e-43 -7.642619567068648e-27 -1.1983742914305925e-43 5.606039291598866 2.479111202406981e-16 -9.083542510176856e-27 2.913345303560508e-16 6.5550581230901885" Properties=species:S:1:pos:R:3:Z:I:1:forces:R:3 cutoff=-1.0 stress="-0.08471607981398087 6.663577442108504e-55 4.30286647478481e-29 6.663577442108504e-55 -0.08471607981398087 -3.5171240694937903e-28 4.30286647478481e-29 -3.5171240694937903e-28 -0.0846730526740749" Minim_Constant_Volume=T nneightol=1.2 pbc="T T T" energy=-1955.12340804 Minim_Hydrostatic_Strain=F
Si       0.50717068       0.50717068       0.00000000       14      -0.00006695      -0.00006695      -0.00000000 
Si      -0.50717068      -0.50717068       3.27752907       14       0.00006695       0.00006695       0.00000000 
Si       2.29584897       3.31019033       4.91629359       14       0.00006695      -0.00006695      -0.00000000 
Si       3.31019033       2.29584897       1.63876453       14      -0.00006695       0.00006695       0.00000000 
Si       0.65425216       3.80922067      -0.05618164       14      -0.00028495      -0.00012393      -0.00078305 
Si       1.00620102       2.14876748       1.58258288       14      -0.00012393       0.00028495      -0.00078305 
Si       1.79681862       4.95178713       3.33371071       14       0.00012393       0.00028495       0.00078305 
Si       2.14876748       1.00620102       4.97247524       14       0.00028495      -0.00012393       0.00078305 
Si       3.45727181       4.59983827       1.69494617       14      -0.00028495       0.00012393       0.00078305 
Si       3.80922067       0.65425216       0.05618164       14      -0.00012393      -0.00028495       0.00078305 
Si       4.59983827       3.45727181       4.86011195       14       0.00012393      -0.00028495      -0.00078305 
Si       4.95178713       1.79681862       3.22134741       14       0.00028495       0.00012393      -0.00078305 
12
Lattice="5.8921421599977455 7.760838153970937e-45 -3.886967731138248e-27 4.2256143677800735e-45 5.8921421599977455 -5.100665950242368e-18 -4.653140485473726e-27 -5.725730965961458e-18 6.951166194096919" Properties=species:S:1:pos:R:3:Z:I:1:forces:R:3 cutoff=-1.0 stress="0.017114015800335503 -7.349992519320886e-55 -4.490634606654468e-30 -7.349992519320886e-55 0.017114015800335503 7.88913690916237e-28 -4.490634606654468e-30 7.88913690916237e-28 0.017116578934743484" Minim_Constant_Volume=T nneightol=1.2 pbc="T T T" energy=-1956.3204743 Minim_Hydrostatic_Strain=F
Si       0.48299283       0.48299283      -0.00000000       14       0.00024154       0.00024154      -0.00000000 
Si      -0.48299283      -0.48299283       3.47558310       14      -0.00024154      -0.00024154       0.00000000 
Si       2.46307825       3.42906391       5.21337465       14      -0.00024154       0.00024154      -0.00000000 
Si       3.42906391       2.46307825       1.73779155       14       0.00024154      -0.00024154       0.00000000 
Si       0.73970702       3.96542941      -0.11843191       14       0.00014600      -0.00012590      -0.00011984 
Si       1.01935832       2.20636405       1.61935964       14      -0.00012590      -0.00014600      -0.00011984 
Si       1.92671275       5.15243514       3.59401501       14       0.00012590      -0.00014600       0.00011984 
Si       2.20636405       1.01935832       5.33180656       14      -0.00014600      -0.00012590       0.00011984 
Si       3.68577811       4.87278384       1.85622346       14       0.00014600       0.00012590       0.00011984 
Si       3.96542941       0.73970702       0.11843191       14      -0.00012590       0.00014600       0.00011984 
Si       4.87278384       3.68577811       5.09494274       14       0.00012590       0.00014600      -0.00011984 
Si       5.15243514       1.92671275       3.35715118       14      -0.00014600       0.00012590      -0.00011984 
12
Lattice="5.936266952970155 -6.89233351733201e-43 -1.2397402029989034e-27 -6.875940128592364e-43 5.936266952970155 8.730177472819247e-18 -1.5223210874929012e-27 1.0603878508659158e-17 7.015242418418957" Properties=species:S:1:pos:R:3:Z:I:1:forces:R:3 cutoff=-1.0 stress="0.034923582638565195 6.25210308398982e-44 1.2384305112448512e-27 6.25210308398982e-44 0.03492358263856518 -8.376894556411219e-18 1.2384305112448512e-27 -8.376894556411219e-18 0.03492348802604575" Minim_Constant_Volume=T nneightol=1.2 pbc="T T T" energy=-1956.16771165 Minim_Hydrostatic_Strain=F
Si       0.48347270       0.48347270       0.00000000       14       0.00000167       0.00000167       0.00000000 
Si      -0.48347270      -0.48347270       3.50762121       14      -0.00000167      -0.00000167      -0.00000000 
Si       2.48466077       3.45160618       5.26143182       14      -0.00000167       0.00000167       0.00000000 
Si       3.45160618       2.48466077       1.75381060       14       0.00000167      -0.00000167      -0.00000000 
Si       0.74991025       3.99202551      -0.11918628       14      -0.00001113      -0.00000879       0.00000412 
Si       1.02389203       2.21822322       1.63462432       14      -0.00000879       0.00001113       0.00000412 
Si       1.94424144       5.18635670       3.62680750       14       0.00000879       0.00001113      -0.00000412 
Si       2.21822322       1.02389203       5.38061810       14       0.00001113      -0.00000879      -0.00000412 
Si       3.71804374       4.91237492       1.87299689       14      -0.00001113       0.00000879      -0.00000412 
Si       3.99202551       0.74991025       0.11918628       14      -0.00000879      -0.00001113      -0.00000412 
Si       4.91237492       3.71804374       5.14224553       14       0.00000879      -0.00001113       0.00000412 
Si       5.18635670       1.94424144       3.38843492       14       0.00001113       0.00000879       0.00000412 
12
Lattice="5.978318795844955 -7.194580148291375e-43 -1.1956827515058683e-27 -6.939239257674655e-43 5.978318795844955 1.2188388246961763e-16 -1.467235789449407e-27 1.4412457727594625e-16 7.081578062809448" Properties=species:S:1:pos:R:3:Z:I:1:forces:R:3 cutoff=-1.0 stress="0.05355194247512577 3.665786458513454e-46 -4.472995153658885e-30 3.665786458513454e-46 0.05355194247512577 -8.093805266306123e-18 -4.472995153658885e-30 -8.093805266306123e-18 0.05355173498754877" Minim_Constant_Volume=T nneightol=1.2 pbc="T T T" energy=-1955.90779173 Minim_Hydrostatic_Strain=F
Si       0.48429945       0.48429945       0.00000000       14      -0.00001088      -0.00001088      -0.00000000 
Si      -0.48429945      -0.48429945       3.54078904       14       0.00001088       0.00001088       0.00000000 
Si       2.50485994       3.47345886       5.31118355       14       0.00001088      -0.00001088      -0.00000000 
Si       3.47345886       2.50485994       1.77039451       14      -0.00001088       0.00001088       0.00000000 
Si       0.75768296       4.01784838      -0.12061477       14      -0.00000621       0.00001556       0.00000450 
Si       1.02868898       2.23147643       1.64977974       14       0.00001556       0.00000621       0.00000450 
Si       1.96047041       5.22063583       3.66140381       14      -0.00001556       0.00000621      -0.00000450 
Si       2.23147643       1.02868898       5.43179832       14       0.00000621       0.00001556      -0.00000450 
Si       3.74684236       4.94962982       1.89100929       14      -0.00000621      -0.00001556      -0.00000450 
Si       4.01784838       0.75768296       0.12061477       14       0.00001556      -0.00000621      -0.00000450 
Si       4.94962982       3.74684236       5.19056878       14      -0.00001556      -0.00000621       0.00000450 
Si       5.22063583       1.96047041       3.42017425       14       0.00000621      -0.00001556       0.00000450 
12
Lattice="6.017902325548664 -7.71175507779316e-43 -1.1432643494532914e-27 -6.987129109457838e-43 6.017902325548664 3.5009354831076815e-16 -1.4009851709706093e-27 4.1373978773934753e-16 7.151239563521905" Properties=species:S:1:pos:R:3:Z:I:1:forces:R:3 cutoff=-1.0 stress="0.07243425258267898 4.891833841956915e-46 -5.8490785288595325e-30 4.891833841956915e-46 0.07243425258267898 -2.7239793166892335e-17 -5.8490785288595325e-30 -2.7239793166892335e-17 0.07243741145250308" Minim_Constant_Volume=T nneightol=1.2 pbc="T T T" energy=-1955.53691707 Minim_Hydrostatic_Strain=F
Si       0.48527480       0.48527480       0.00000000       14       0.00001385       0.00001385       0.00000000 
Si      -0.48527480      -0.48527480       3.57561979       14      -0.00001385      -0.00001385      -0.00000000 
Si       2.52367636       3.49422597       5.36342968       14      -0.00001385       0.00001385       0.00000000 
Si       3.49422597       2.52367636       1.78780989       14       0.00001385      -0.00001385      -0.00000000 
Si       0.76311877       4.04264560      -0.12398410       14      -0.00025543       0.00020453      -0.00014166 
Si       1.03369444       2.24583239       1.66382579       14       0.00020453       0.00025543      -0.00014166 
Si       1.97525672       5.25478355       3.69960389       14      -0.00020453       0.00025543       0.00014166 
Si       2.24583239       1.03369444       5.48741378       14       0.00025543       0.00020453       0.00014166 
Si       3.77206994       4.98420789       1.91179399       14      -0.00025543      -0.00020453       0.00014166 
Si       4.04264560       0.76311877       0.12398410       14       0.00020453      -0.00025543       0.00014166 
Si       4.98420789       3.77206994       5.23944557       14      -0.00020453      -0.00025543      -0.00014166 
Si       5.25478355       1.97525672       3.45163567       14       0.00025543      -0.00020453      -0.00014166 
12
Lattice="6.054986527734775 -8.783993299820327e-43 -2.1746239153387046e-28 -7.352579908483678e-43 6.054986527734775 5.052957101877659e-16 -2.9944807559802074e-28 5.961455513346632e-16 7.224431825323574" Properties=species:S:1:pos:R:3:Z:I:1:forces:R:3 cutoff=-1.0 stress="0.09056211700473098 2.5437877181372393e-46 -1.588751787079153e-30 2.5437877181372393e-46 0.09056211700473096 -7.366663702598287e-17 -1.588751787079153e-30 -7.366663702598287e-17 0.09054097096883962" Minim_Constant_Volume=T nneightol=1.2 pbc="T T T" energy=-1955.05665767 Minim_Hydrostatic_Strain=F
Si       0.48570050       0.48570050       0.00000000       14       0.00063507       0.00063507       0.00000000 
Si      -0.48570050      -0.48570050       3.61221592       14      -0.00063507      -0.00063507      -0.00000000 
Si       2.54179276       3.51319377       5.41832387       14      -0.00063507       0.00063507       0.00000000 
Si       3.51319377       2.54179276       1.80610795       14       0.00063507      -0.00063507      -0.00000000 
Si       0.76621061       4.06613225      -0.13116689       14      -0.00094456       0.00096341       0.00021646 
Si       1.03863898       2.26128265       1.67494106       14       0.00096341       0.00094456       0.00021646 
Si       1.98885428       5.28877591       3.74338281       14      -0.00096341       0.00094456      -0.00021646 
Si       2.26128265       1.03863898       5.54949077       14       0.00094456       0.00096341      -0.00021646 
Si       3.79370388       5.01634755       1.93727485       14      -0.00094456      -0.00096341      -0.00021646 
Si       4.06613225       0.76621061       0.13116689       14       0.00096341      -0.00094456      -0.00021646 
Si       5.01634755       3.79370388       5.28715698       14      -0.00096341      -0.00094456       0.00021646 
Si       5.28877591       1.98885428       3.48104901       14       0.00094456      -0.00096341       0.00021646 
12
Lattice="6.0895482802304 -2.343796873462309e-43 -2.197112913285014e-27 -3.2720534447011946e-43 6.0895482802304 1.1061471468752791e-15 -2.6673925664530818e-27 1.3102120363413149e-15 7.301352216248209" Properties=species:S:1:pos:R:3:Z:I:1:forces:R:3 cutoff=-1.0 stress="0.10660558677821114 -3.5565082732081164e-43 1.1457188974741797e-27 -3.5565082732081164e-43 0.10660558677821115 -1.728055047159744e-17 1.1457188974741797e-27 -1.728055047159744e-17 0.10661245977908879" Minim_Constant_Volume=T nneightol=1.2 pbc="T T T" energy=-1954.47501249 Minim_Hydrostatic_Strain=F
Si       0.48562279       0.48562279       0.00000000       14       0.00006718       0.00006718       0.00000000 
Si      -0.48562279      -0.48562279       3.65067611       14      -0.00006718      -0.00006718      -0.00000000 
Si       2.55915135       3.53039693       5.47601416       14      -0.00006718       0.00006718       0.00000000 
Si       3.53039693       2.55915135       1.82533805       14       0.00006718      -0.00006718      -0.00000000 
Si       0.76585314       4.08898663      -0.14545794       14       0.00006976       0.00000284       0.00001796 
Si       1.04421249       2.27892099       1.67988011       14       0.00000284      -0.00006976       0.00001796 
Si       2.00056165       5.32369514       3.79613405       14      -0.00000284      -0.00006976      -0.00001796 
Si       2.27892099       1.04421249       5.62147210       14      -0.00006976       0.00000284      -0.00001796 
Si       3.81062729       5.04533579       1.97079599       14       0.00006976      -0.00000284      -0.00001796 
Si       4.08898663       0.76585314       0.14545794       14       0.00000284       0.00006976      -0.00001796 
Si       5.04533579       3.81062729       5.33055623       14      -0.00000284       0.00006976       0.00001796 
Si       5.32369514       2.00056165       3.50521817       14      -0.00006976      -0.00000284       0.00001796 
