2
Lattice="3.279350720461325 7.72424949644487e-36 -1.2886892316614595e-36 7.72424949644487e-36 3.279350720461325 -8.872074082945546e-19 -1.2886892316614595e-36 -8.872074082945546e-19 3.279350720461325" Properties=species:S:1:pos:R:3:Z:I:1:forces:R:3 stress="1.0767496562463557e-05 2.7170150538898286e-52 5.9695761782054876e-36 2.7170150538898286e-52 1.0767496562463567e-05 4.900302054366944e-22 5.9695761782054876e-36 4.900302054366944e-22 1.076749656246357e-05" energy=-12.0048284215 Minim_Constant_Volume=T Minim_Hydrostatic_Strain=F pbc="T T T"
Ti      -0.00000000       0.00000000       0.00000000       22      -0.00000000       0.00000000       0.00000000 
Ti       1.63967536       1.63967536       1.63967536       22       0.00000000      -0.00000000      -0.00000000 
2
Lattice="3.251791848446341 7.659336767850113e-36 -1.2778593983713349e-36 7.659336767850113e-36 3.251791848446341 -8.797515313542269e-19 -1.2778593983713349e-36 -8.797515313542269e-19 3.251791848446341" Properties=species:S:1:pos:R:3:Z:I:1:forces:R:3 stress="-0.017000183589642504 7.600314597075364e-51 -3.885560976872156e-34 7.600314597075364e-51 -0.017000183589642493 4.93679483777271e-19 -3.885560976872156e-34 4.93679483777271e-19 -0.017000183589642493" energy=-11.9972949838 Minim_Constant_Volume=T Minim_Hydrostatic_Strain=F pbc="T T T"
Ti      -0.00000000       0.00000000       0.00000000       22      -0.00000000      -0.00000000       0.00000000 
Ti       1.62589592       1.62589592       1.62589592       22       0.00000000       0.00000000       0.00000000 
2
Lattice="3.223757765097949 7.593304716799273e-36 -1.2668428208808094e-36 7.593304716799273e-36 3.223757765097949 -8.72167089020489e-19 -1.2668428208808094e-36 -8.72167089020489e-19 3.223757765097949" Properties=species:S:1:pos:R:3:Z:I:1:forces:R:3 stress="-0.03519277559956784 -2.470895735068774e-35 -7.126571264201606e-52 -2.470895735068774e-35 -0.03519277559956781 -1.7243567457863929e-18 -7.126571264201606e-52 -1.7243567457863929e-18 -0.03519277559956782" energy=-11.9744188346 Minim_Constant_Volume=T Minim_Hydrostatic_Strain=F pbc="T T T"
Ti      -0.00000000       0.00000000       0.00000000       22       0.00000000       0.00000000       0.00000000 
Ti       1.61187888       1.61187888       1.61187888       22       0.00000000       0.00000000       0.00000000 
2
Lattice="3.195227439067065 7.526103805624252e-36 -1.255631234482811e-36 7.526103805624252e-36 3.195227439067065 -8.644483913960707e-19 -1.255631234482811e-36 -8.644483913960707e-19 3.195227439067065" Properties=species:S:1:pos:R:3:Z:I:1:forces:R:3 stress="-0.05527086734447686 5.4244219568357416e-39 -6.923035326960515e-54 5.4244219568357416e-39 -0.05527086734447684 -3.676288272138648e-18 -6.923035326960515e-54 -3.676288272138648e-18 -0.055270867344476816" energy=-11.9346840901 Minim_Constant_Volume=T Minim_Hydrostatic_Strain=F pbc="T T T"
Ti      -0.00000000       0.00000000       0.00000000       22      -0.00000000      -0.00000000      -0.00000000 
Ti       1.59761372       1.59761372       1.59761372       22       0.00000000       0.00000000       0.00000000 
2
Lattice="3.166178309004233 7.457680892862903e-36 -1.2442157732247242e-36 7.457680892862903e-36 3.166178309004233 -8.565893346518651e-19 -1.2442157732247242e-36 -8.565893346518651e-19 3.166178309004233" Properties=species:S:1:pos:R:3:Z:I:1:forces:R:3 stress="-0.07725605584067431 6.40395825628005e-36 9.405813688911323e-36 6.40395825628005e-36 -0.07725605584067435 -5.091894577687668e-18 9.405813688911323e-36 -5.091894577687668e-18 -0.07725605584067438" energy=-11.8763842016 Minim_Constant_Volume=T Minim_Hydrostatic_Strain=F pbc="T T T"
Ti      -0.00000000       0.00000000       0.00000000       22      -0.00000000      -0.00000000      -0.00000000 
Ti       1.58308915       1.58308915       1.58308915       22       0.00000000      -0.00000000      -0.00000000 
2
Lattice="3.136586126208784 7.387978862631659e-36 -1.2325869080740986e-36 7.387978862631659e-36 3.136586126208784 -8.485833584566642e-19 -1.2325869080740986e-36 -8.485833584566642e-19 3.136586126208784" Properties=species:S:1:pos:R:3:Z:I:1:forces:R:3 stress="-0.1010518462520371 -6.525364810985432e-36 -9.991964866821436e-36 -6.525364810985432e-36 -0.10105184625203709 8.797346711717571e-18 -9.991964866821436e-36 8.797346711717571e-18 -0.10105184625203699" energy=-11.7979306058 Minim_Constant_Volume=T Minim_Hydrostatic_Strain=F pbc="T T T"
Ti      -0.00000000       0.00000000       0.00000000       22      -0.00000000       0.00000000       0.00000000 
Ti       1.56829306       1.56829306       1.56829306       22       0.00000000      -0.00000000      -0.00000000 
2
Lattice="3.306454021629066 7.78808916418479e-36 -1.2993400388896757e-36 7.78808916418479e-36 3.306454021629066 -8.94540033449657e-19 -1.2993400388896757e-36 -8.94540033449657e-19 3.306454021629066" Properties=species:S:1:pos:R:3:Z:I:1:forces:R:3 stress="0.01575043801555521 -1.0635986974260623e-50 -5.637226542123601e-34 -1.0635986974260623e-50 0.015750438015555195 4.0638311754126816e-20 -5.637226542123601e-34 4.0638311754126816e-20 0.015750438015555198" energy=-11.9976822733 Minim_Constant_Volume=T Minim_Hydrostatic_Strain=F pbc="T T T"
Ti      -0.00000000       0.00000000       0.00000000       22       0.00000000      -0.00000000       0.00000000 
Ti       1.65322701       1.65322701       1.65322701       22      -0.00000000       0.00000000       0.00000000 
2
Lattice="3.333120124995055 7.850899047315532e-36 -1.30981904012724e-36 7.850899047315532e-36 3.333120124995055 -9.017543775297333e-19 -1.30981904012724e-36 -9.017543775297333e-19 3.333120124995055" Properties=species:S:1:pos:R:3:Z:I:1:forces:R:3 stress="0.02945288034384814 -1.444632256965904e-36 -1.6429940457452837e-53 -1.444632256965904e-36 0.029452880343848152 -2.6188527125002374e-19 -1.6429940457452837e-53 -2.6188527125002374e-19 0.02945288034384814" energy=-11.9776436971 Minim_Constant_Volume=T Minim_Hydrostatic_Strain=F pbc="T T T"
Ti      -0.00000000       0.00000000       0.00000000       22       0.00000000       0.00000000       0.00000000 
Ti       1.66656006       1.66656006       1.66656006       22       0.00000000       0.00000000       0.00000000 
2
Lattice="3.359366245975681 7.912719695379582e-36 -1.3201330005309195e-36 7.912719695379582e-36 3.359366245975681 -9.088550980558167e-19 -1.3201330005309195e-36 -9.088550980558167e-19 3.359366245975681" Properties=species:S:1:pos:R:3:Z:I:1:forces:R:3 stress="0.04182071554768567 -2.088097429759528e-53 1.155494548297113e-36 -2.088097429759528e-53 0.04182071554768566 -2.7603851366082703e-72 1.155494548297113e-36 -2.7603851366082703e-72 0.04182071554768565" energy=-11.9461323472 Minim_Constant_Volume=T Minim_Hydrostatic_Strain=F pbc="T T T"
Ti      -0.00000000       0.00000000       0.00000000       22       0.00000000       0.00000000       0.00000000 
Ti       1.67968312       1.67968312       1.67968312       22       0.00000000       0.00000000       0.00000000 
2
Lattice="3.3852085403397374 7.973589162003896e-36 -1.3302882688468686e-36 7.973589162003896e-36 3.3852085403397374 -9.15846565868047e-19 -1.3302882688468686e-36 -9.15846565868047e-19 3.3852085403397374" Properties=species:S:1:pos:R:3:Z:I:1:forces:R:3 stress="0.052869854738921564 -8.403101981541193e-36 -4.2015509907705957e-36 -8.403101981541193e-36 0.052869854738921564 5.803748018632026e-19 -4.2015509907705957e-36 5.803748018632026e-19 0.05286985473892157" energy=-11.904286079 Minim_Constant_Volume=T Minim_Hydrostatic_Strain=F pbc="T T T"
Ti      -0.00000000       0.00000000       0.00000000       22      -0.00000000      -0.00000000       0.00000000 
Ti       1.69260427       1.69260427       1.69260427       22       0.00000000      -0.00000000      -0.00000000 
2
Lattice="3.4106621918726043 8.033543211385895e-36 -1.3402908118600948e-36 8.033543211385895e-36 3.4106621918726043 -9.227328888426545e-19 -1.3402908118600948e-36 -9.227328888426545e-19 3.4106621918726043" Properties=species:S:1:pos:R:3:Z:I:1:forces:R:3 stress="0.06245241878730363 -5.518763928338333e-36 -1.655629178501499e-35 -5.518763928338333e-36 0.06245241878730363 4.434038626867034e-18 -1.655629178501499e-35 4.434038626867034e-18 0.06245241878730358" energy=-11.8533391885 Minim_Constant_Volume=T Minim_Hydrostatic_Strain=F pbc="T T T"
Ti      -0.00000000       0.00000000       0.00000000       22       0.00000000       0.00000000       0.00000000 
Ti       1.70533110       1.70533110       1.70533110       22       0.00000000       0.00000000       0.00000000 
2
Lattice="3.435741491013245 8.092615503516647e-36 -1.3501462452965078e-36 8.092615503516647e-36 3.435741491013245 -9.29517933166697e-19 -1.3501462452965078e-36 -9.29517933166697e-19 3.435741491013245" Properties=species:S:1:pos:R:3:Z:I:1:forces:R:3 stress="0.07067131140494338 -8.591684080969938e-54 -5.098583640300179e-37 -8.591684080969938e-54 0.07067131140494338 -7.565190495022803e-19 -5.098583640300179e-37 -7.565190495022803e-19 0.07067131140494338" energy=-11.7945666325 Minim_Constant_Volume=T Minim_Hydrostatic_Strain=F pbc="T T T"
Ti      -0.00000000       0.00000000       0.00000000       22       0.00000000       0.00000000       0.00000000 
Ti       1.71787075       1.71787075       1.71787075       22       0.00000000       0.00000000       0.00000000 
