2
Lattice="3.179871440026003 -5.0105011008115963e-26 1.4699784513110491e-27 -5.0105011008115963e-26 3.179871440026003 2.8476708805059795e-54 1.4699784513110491e-27 1.4238354402529897e-54 3.179871440026003" Properties=species:S:1:pos:R:3:Z:I:1:forces:R:3 stress="5.600309344069163e-05 -1.6361051749734984e-25 -5.453683916578328e-26 -1.6361051749734984e-25 5.600309344069167e-05 6.415434582612613e-23 -5.453683916578328e-26 6.415434582612613e-23 5.600309344069167e-05" energy=-22.4022910351 Minim_Constant_Volume=T Minim_Hydrostatic_Strain=F pbc="T T T"
W       0.00000000      -0.00000000      -0.00000000       74      -0.00000000      -0.00000000       0.00000000 
W       1.58993572       1.58993572       1.58993572       74      -0.00000000       0.00000000      -0.00000000 
2
Lattice="3.1531485678754296 -4.968394058796652e-26 1.4576251071714e-27 -4.968394058796652e-26 3.1531485678754296 2.823739741684201e-54 1.4576251071714e-27 1.4118698708421005e-54 3.1531485678754296" Properties=species:S:1:pos:R:3:Z:I:1:forces:R:3 stress="-0.047478075609455474 -2.599929073623843e-26 -2.7732576785320996e-26 -2.599929073623843e-26 -0.047478075609455425 -2.5969751716008826e-19 -2.7732576785320996e-26 -2.5969751716008826e-19 -0.04747807560945542" energy=-22.3834435049 Minim_Constant_Volume=T Minim_Hydrostatic_Strain=F pbc="T T T"
W       0.00000000      -0.00000000      -0.00000000       74       0.00000000       0.00000000       0.00000000 
W       1.57657428       1.57657428       1.57657428       74       0.00000000       0.00000000       0.00000000 
2
Lattice="3.1259648999527987 -4.9255609441191213e-26 1.4450587481762274e-27 -4.9255609441191213e-26 3.1259648999527987 2.7993959463363024e-54 1.4450587481762274e-27 1.3996979731681512e-54 3.1259648999527987" Properties=species:S:1:pos:R:3:Z:I:1:forces:R:3 stress="-0.09989563078077868 2.821700387015043e-26 -2.3808097015439426e-26 2.821700387015043e-26 -0.09989563078077883 -1.2629221077447212e-19 -2.3808097015439426e-26 -1.2629221077447212e-19 -0.09989563078077886" energy=-22.324604358 Minim_Constant_Volume=T Minim_Hydrostatic_Strain=F pbc="T T T"
W       0.00000000      -0.00000000      -0.00000000       74       0.00000000       0.00000000       0.00000000 
W       1.56298245       1.56298245       1.56298245       74       0.00000000       0.00000000       0.00000000 
2
Lattice="3.098300042896133 -4.8819696231017265e-26 1.432269946962438e-27 -4.8819696231017265e-26 3.098300042896133 2.7746212315909213e-54 1.432269946962438e-27 1.3873106157954607e-54 3.098300042896133" Properties=species:S:1:pos:R:3:Z:I:1:forces:R:3 stress="-0.1592979280344374 1.9747169256578084e-26 1.5538268684131443e-44 1.9747169256578084e-26 -0.15929792803443732 7.49207831204288e-20 1.5538268684131443e-44 7.49207831204288e-20 -0.15929792803443732" energy=-22.2209864668 Minim_Constant_Volume=T Minim_Hydrostatic_Strain=F pbc="T T T"
W       0.00000000      -0.00000000      -0.00000000       74       0.00000000       0.00000000       0.00000000 
W       1.54915002       1.54915002       1.54915002       74       0.00000000       0.00000000       0.00000000 
2
Lattice="3.070132119755723 -4.8375856243884186e-26 1.4192485903398415e-27 -4.8375856243884186e-26 3.070132119755723 2.74939600597909e-54 1.4192485903398415e-27 1.374698002989545e-54 3.070132119755723" Properties=species:S:1:pos:R:3:Z:I:1:forces:R:3 stress="-0.2287523086411477 5.850526587167591e-26 -4.2802693943047845e-43 5.850526587167591e-26 -0.22875230864114784 3.6873814600902394e-18 -4.2802693943047845e-43 3.6873814600902394e-18 -0.22875230864114784" energy=-22.0658228067 Minim_Constant_Volume=T Minim_Hydrostatic_Strain=F pbc="T T T"
W       0.00000000      -0.00000000      -0.00000000       74       0.00000000       0.00000000       0.00000000 
W       1.53506606       1.53506606       1.53506606       74       0.00000000       0.00000000       0.00000000 
2
Lattice="3.041437617416541 -4.7923718985289426e-26 1.405983808758185e-27 -4.7923718985289426e-26 3.041437617416541 2.723699212796397e-54 1.405983808758185e-27 1.3618496063981985e-54 3.041437617416541" Properties=species:S:1:pos:R:3:Z:I:1:forces:R:3 stress="-0.31258639309881137 -8.942161735720235e-26 -1.7884323471440463e-25 -8.942161735720235e-26 -0.3125863930988119 4.71831389787843e-34 -1.7884323471440463e-25 4.71831389787843e-34 -0.31258639309881175" energy=-21.849383867 Minim_Constant_Volume=T Minim_Hydrostatic_Strain=F pbc="T T T"
W       0.00000000      -0.00000000      -0.00000000       74       0.00000000       0.00000000       0.00000000 
W       1.52071881       1.52071881       1.52071881       74       0.00000000       0.00000000       0.00000000 
2
Lattice="3.206152561095481 -5.0519120787497815e-26 1.482127584499941e-27 -5.0519120787497815e-26 3.206152561095481 2.871206417897388e-54 1.482127584499941e-27 1.435603208948694e-54 3.206152561095481" Properties=species:S:1:pos:R:3:Z:I:1:forces:R:3 stress="0.044400681126450556 1.6093925059082774e-25 -6.79040756599714e-43 1.6093925059082774e-25 0.04440068112645059 -2.813639764808655e-19 -6.79040756599714e-43 -2.813639764808655e-19 0.04440068112645056" energy=-22.3841181479 Minim_Constant_Volume=T Minim_Hydrostatic_Strain=F pbc="T T T"
W       0.00000000      -0.00000000      -0.00000000       74      -0.00000000       0.00000000       0.00000000 
W       1.60307628       1.60307628       1.60307628       74      -0.00000000      -0.00000000      -0.00000000 
2
Lattice="3.2320097467820315 -5.09265506468172e-26 1.4940807425088909e-27 -5.09265506468172e-26 3.2320097467820315 2.8943623083540234e-54 1.4940807425088909e-27 1.4471811541770117e-54 3.2320097467820315" Properties=species:S:1:pos:R:3:Z:I:1:forces:R:3 stress="0.08384957597397401 -1.3197867771499936e-25 3.3745836329834504e-44 -1.3197867771499936e-25 0.08384957597397406 -1.0497329700152047e-19 3.3745836329834504e-44 -1.0497329700152047e-19 0.08384957597397412" energy=-22.3322173493 Minim_Constant_Volume=T Minim_Hydrostatic_Strain=F pbc="T T T"
W       0.00000000      -0.00000000      -0.00000000       74       0.00000000       0.00000000       0.00000000 
W       1.61600487       1.61600487       1.61600487       74       0.00000000       0.00000000       0.00000000 
2
Lattice="3.25745969027146 -5.132756361943074e-26 1.5058456421981177e-27 -5.132756361943074e-26 3.25745969027146 2.9171535011277715e-54 1.5058456421981177e-27 1.4585767505638858e-54 3.25745969027146" Properties=species:S:1:pos:R:3:Z:I:1:forces:R:3 stress="0.117719573698358 -5.25738940434756e-43 2.598489652555848e-26 -5.25738940434756e-43 0.11771957369835798 1.4593340879529712e-20 2.598489652555848e-26 1.4593340879529712e-20 0.11771957369835798" energy=-22.2508046053 Minim_Constant_Volume=T Minim_Hydrostatic_Strain=F pbc="T T T"
W       0.00000000      -0.00000000      -0.00000000       74       0.00000000       0.00000000      -0.00000000 
W       1.62872985       1.62872985       1.62872985       74       0.00000000      -0.00000000       0.00000000 
2
Lattice="3.282518057246447 -5.17224065484005e-26 1.5174295254377417e-27 -5.17224065484005e-26 3.282518057246447 2.9395940253104473e-54 1.5174295254377417e-27 1.4697970126552237e-54 3.282518057246447" Properties=species:S:1:pos:R:3:Z:I:1:forces:R:3 stress="0.14528052754487286 2.5589679377581853e-26 -5.1179358755163707e-26 2.5589679377581853e-26 0.14528052754487314 -4.852014877516707e-19 -5.1179358755163707e-26 -4.852014877516707e-19 0.1452805275448731" energy=-22.1446521706 Minim_Constant_Volume=T Minim_Hydrostatic_Strain=F pbc="T T T"
W       0.00000000      -0.00000000      -0.00000000       74       0.00000000      -0.00000000       0.00000000 
W       1.64125903       1.64125903       1.64125903       74      -0.00000000       0.00000000      -0.00000000 
2
Lattice="3.307199570891426 -5.21113114259098e-26 1.5288391984035022e-27 -5.21113114259098e-26 3.307199570891426 2.96169706595823e-54 1.5288391984035022e-27 1.480848532979115e-54 3.307199570891426" Properties=species:S:1:pos:R:3:Z:I:1:forces:R:3 stress="0.16618887282393197 -5.04183097373908e-26 -6.302288717173849e-26 -5.04183097373908e-26 0.16618887282393213 -8.000595040190607e-19 -6.302288717173849e-26 -8.000595040190607e-19 0.16618887282393216" energy=-22.019084473 Minim_Constant_Volume=T Minim_Hydrostatic_Strain=F pbc="T T T"
W       0.00000000      -0.00000000      -0.00000000       74       0.00000000      -0.00000000       0.00000000 
W       1.65359979       1.65359979       1.65359979       74      -0.00000000       0.00000000      -0.00000000 
2
Lattice="3.3315180881441258 -5.249449659475348e-26 1.540081066826023e-27 -5.249449659475348e-26 3.3315180881441258 2.983475032377221e-54 1.540081066826023e-27 1.4917375161886105e-54 3.3315180881441258" Properties=species:S:1:pos:R:3:Z:I:1:forces:R:3 stress="0.18665329833141767 -1.9408178212293982e-27 -1.4939132902200855e-44 -1.9408178212293982e-27 0.1866532983314177 -2.315925409320505e-18 -1.4939132902200855e-44 -2.315925409320505e-18 0.18665329833141764" energy=-21.8774510984 Minim_Constant_Volume=T Minim_Hydrostatic_Strain=F pbc="T T T"
W       0.00000000      -0.00000000      -0.00000000       74      -0.00000000       0.00000000      -0.00000000 
W       1.66575904       1.66575904       1.66575904       74       0.00000000       0.00000000       0.00000000 
