2
Lattice="2.656651686704045 2.917016653313002e-17 3.0004681700538884e-32 -1.3283258433520218 2.3007278496924806 3.1384894377262973e-31 5.306070937041442e-32 7.025183210096126e-31 5.050751370004066" Properties=species:S:1:pos:R:3:Z:I:1:forces:R:3 stress="0.00015350618051563754 5.2449698499535784e-21 -2.5084450679946963e-30 5.2449698499535784e-21 0.00015350618051563754 -1.448339089845176e-30 -2.5084450679946963e-30 -1.448339089845176e-30 -8.884208514067915e-05" energy=-325.340276041 Minim_Constant_Volume=T Minim_Hydrostatic_Strain=F pbc="T T T"
Si      -0.00000000       0.00000000       0.00000000       14       0.00000000       0.00000000       0.00000000 
Si       0.00000000       1.53381857       2.52537569       14       0.00000000       0.00000000       0.00000000 
2
Lattice="2.6069660775519523 -1.2387285723540432e-17 -1.941186685553068e-30 -1.3034830387759755 2.2576988499642634 4.93208733525795e-31 -3.6962007262899995e-30 -1.0893399819397627e-30 5.112337245057098" Properties=species:S:1:pos:R:3:Z:I:1:forces:R:3 stress="-0.01688403782444612 9.038087734175596e-18 -4.51438025318557e-31 9.038087734175596e-18 -0.016884037824446137 -4.422918628404845e-31 -4.51438025318557e-31 -4.422918628404845e-31 -0.016450849245258792" energy=-325.334089922 Minim_Constant_Volume=T Minim_Hydrostatic_Strain=F pbc="T T T"
Si      -0.00000000       0.00000000       0.00000000       14      -0.00000000       0.00000000      -0.00000000 
Si       0.00000000       1.50513257       2.55616862       14       0.00000000      -0.00000000       0.00000000 
2
Lattice="2.5847680219232143 -1.2281809223501568e-17 -1.924657674913951e-30 -1.2923840109616065 2.238474769875156 4.890091104475898e-31 -3.664727946477608e-30 -1.0800643608544225e-30 5.068806204305999" Properties=species:S:1:pos:R:3:Z:I:1:forces:R:3 stress="-0.038002627477852 1.3513155929783341e-18 -6.358246347999976e-31 1.3513155929783341e-18 -0.038002627477852005 -1.6665857673712015e-30 -6.358246347999976e-31 -1.6665857673712015e-30 -0.03843444793131219" energy=-325.312899502 Minim_Constant_Volume=T Minim_Hydrostatic_Strain=F pbc="T T T"
Si      -0.00000000       0.00000000       0.00000000       14       0.00000000       0.00000000      -0.00000000 
Si       0.00000000       1.49231651       2.53440310       14      -0.00000000      -0.00000000       0.00000000 
2
Lattice="2.5997921228427043 -4.886484295931447e-16 1.3189684167090686e-29 -1.299896061421352 2.2514860229404556 2.5744419767488e-29 2.580955510726319e-29 7.31736095056428e-29 4.87530366165844" Properties=species:S:1:pos:R:3:Z:I:1:forces:R:3 stress="-0.04098269255644073 6.959736742684919e-18 1.9685558292690145e-30 6.959736742684919e-18 -0.0409826925564408 5.468354722019661e-30 1.9685558292690145e-30 5.468354722019661e-30 -0.040894451580439264" energy=-325.28046971 Minim_Constant_Volume=T Minim_Hydrostatic_Strain=F pbc="T T T"
Si      -0.00000000       0.00000000       0.00000000       14      -0.00000000       0.00000000       0.00000000 
Si       0.00000000       1.50099068       2.43765183       14       0.00000000      -0.00000000      -0.00000000 
2
Lattice="2.600390996253878 -5.265081958474793e-16 4.424796179004455e-30 -1.3001954981269388 2.2520046625281833 2.2492086419818388e-29 1.0048741381910178e-29 5.855449066179793e-29 4.743291821859016" Properties=species:S:1:pos:R:3:Z:I:1:forces:R:3 stress="-0.03318539714347455 -1.2042321545047303e-17 1.0617786653393316e-29 -1.2042321545047303e-17 -0.03318539714347458 -6.753502585035289e-30 1.0617786653393316e-29 -6.753502585035289e-30 -0.03303824872360425" energy=-325.251701013 Minim_Constant_Volume=T Minim_Hydrostatic_Strain=F pbc="T T T"
Si      -0.00000000       0.00000000       0.00000000       14       0.00000000      -0.00000000      -0.00000000 
Si       0.00000000       1.50133644       2.37164591       14      -0.00000000       0.00000000       0.00000000 
2
Lattice="2.5997125660717155 -4.2248116640960446e-16 3.0623863236316714e-30 -1.2998562830358575 2.2514171247557364 -8.866042541311133e-31 7.781049746796775e-30 9.281686996961627e-30 4.613966094508627" Properties=species:S:1:pos:R:3:Z:I:1:forces:R:3 stress="-0.01885938957792469 -3.509421903379507e-18 -5.92337567659422e-30 -3.509421903379507e-18 -0.018859389577924702 -2.855227158149794e-29 -5.92337567659422e-30 -2.855227158149794e-29 -0.018857266542340042" energy=-325.231653682 Minim_Constant_Volume=T Minim_Hydrostatic_Strain=F pbc="T T T"
Si      -0.00000000       0.00000000       0.00000000       14      -0.00000000      -0.00000000      -0.00000000 
Si       0.00000000       1.50094475       2.30698305       14      -0.00000000      -0.00000000      -0.00000000 
2
Lattice="2.7040569953410403 -1.6319802908260905e-17 -1.585017822326901e-31 -1.3520284976705195 2.3417820512463603 3.1716769388872216e-31 -3.0375424613935494e-31 5.232912927506667e-31 4.995731014134444" Properties=species:S:1:pos:R:3:Z:I:1:forces:R:3 stress="0.011004359462346153 -3.3211085861853662e-18 1.1495120590231504e-32 -3.3211085861853662e-18 0.011004359462346156 3.8460610565375863e-32 1.1495120590231504e-32 3.8460610565375863e-32 0.010624275759372479" energy=-325.335465198 Minim_Constant_Volume=T Minim_Hydrostatic_Strain=F pbc="T T T"
Si      -0.00000000       0.00000000       0.00000000       14      -0.00000000      -0.00000000      -0.00000000 
Si       0.00000000       1.56118803       2.49786551       14       0.00000000      -0.00000000       0.00000000 
2
Lattice="2.7597957384365506 1.4818051493240397e-17 -2.882206816978026e-31 -1.3798978692182746 2.3900532187420866 -4.368620054383592e-30 -5.54577391372412e-31 -9.59198788251367e-30 4.912019202147195" Properties=species:S:1:pos:R:3:Z:I:1:forces:R:3 stress="0.008667984465909493 2.3391272258357417e-18 9.315293093745404e-33 2.3391272258357417e-18 0.008667984465909497 -7.852859374269376e-32 9.315293093745404e-33 -7.852859374269376e-32 0.009370544693193988" energy=-325.328396983 Minim_Constant_Volume=T Minim_Hydrostatic_Strain=F pbc="T T T"
Si      -0.00000000       0.00000000       0.00000000       14       0.00000000       0.00000000      -0.00000000 
Si       0.00000000       1.59336881       2.45600960       14      -0.00000000      -0.00000000       0.00000000 
2
Lattice="2.804448730117134 7.656124181550538e-17 4.879418266481671e-31 -1.4022243650585664 2.428723843892447 -3.099303450826809e-30 8.13658607405328e-31 -6.417623278627855e-30 4.871391559926378" Properties=species:S:1:pos:R:3:Z:I:1:forces:R:3 stress="0.015913344918847168 -6.072035367775451e-19 -1.958035450079503e-30 -6.072035367775451e-19 0.015913344918847164 -1.3296816833852989e-30 -1.958035450079503e-30 -1.3296816833852989e-30 0.015961031516473104" energy=-325.319672935 Minim_Constant_Volume=T Minim_Hydrostatic_Strain=F pbc="T T T"
Si      -0.00000000       0.00000000      -0.00000000       14      -0.00000000       0.00000000      -0.00000000 
Si       0.00000000       1.61914923       2.43569578       14      -0.00000000       0.00000000       0.00000000 
2
Lattice="2.8403249942146394 2.1576617409126573e-17 2.0631649351632627e-30 -1.420162497107319 2.4597935999937666 -2.4075811536598553e-30 3.562222768158529e-30 -3.5457827021952386e-30 4.860144966451159" Properties=species:S:1:pos:R:3:Z:I:1:forces:R:3 stress="0.03215453785288037 -9.694127513671403e-18 -1.036564085315078e-31 -9.694127513671403e-18 0.032154537852880354 -8.260798014922488e-31 -1.036564085315078e-31 -8.260798014922488e-31 0.032191572766150894" energy=-325.301396214 Minim_Constant_Volume=T Minim_Hydrostatic_Strain=F pbc="T T T"
Si      -0.00000000       0.00000000      -0.00000000       14       0.00000000      -0.00000000       0.00000000 
Si       0.00000000       1.63986240       2.43007248       14      -0.00000000       0.00000000      -0.00000000 
2
Lattice="2.8730059194229005 6.653215369596495e-18 1.1083296012925746e-29 -1.4365029597114496 2.4880961114433 -5.394325821771969e-30 1.9039100867487165e-29 -5.777817238019431e-31 4.858302017449303" Properties=species:S:1:pos:R:3:Z:I:1:forces:R:3 stress="0.052808294240896725 -1.2230619269560347e-18 -1.6429356088801574e-30 -1.2230619269560347e-18 0.052808294240896704 -3.553857517424709e-30 -1.6429356088801574e-30 -3.553857517424709e-30 0.052829425768693504" energy=-325.268979338 Minim_Constant_Volume=T Minim_Hydrostatic_Strain=F pbc="T T T"
Si      -0.00000000       0.00000000      -0.00000000       14       0.00000000      -0.00000000      -0.00000000 
Si       0.00000000       1.65873074       2.42915101       14      -0.00000000       0.00000000       0.00000000 
2
Lattice="2.900686689894828 -8.982543455621917e-17 2.240880112591339e-29 -1.4503433449474132 2.5120683618683155 1.388534727873604e-29 3.832099117787611e-29 4.811887236665279e-29 4.872084589039593" Properties=species:S:1:pos:R:3:Z:I:1:forces:R:3 stress="0.07871835685430294 -1.8662445554871105e-17 -6.34558368943468e-30 -1.8662445554871105e-17 0.07871835685430288 -1.565239452470406e-29 -6.34558368943468e-30 -1.565239452470406e-29 0.07863983589790893" energy=-325.218460952 Minim_Constant_Volume=T Minim_Hydrostatic_Strain=F pbc="T T T"
Si      -0.00000000       0.00000000      -0.00000000       14       0.00000000      -0.00000000      -0.00000000 
Si       0.00000000       1.67471224       2.43604229       14      -0.00000000       0.00000000       0.00000000 
