30
Lattice="4.491214286570765 0.0 0.0 2.245607143285383 3.889505666009886 0.0 0.0 0.0 37.50295831899089" Properties=species:S:1:pos:R:3:Z:I:1 energy=-327.077493332 pbc="T T T"
W       0.05689402       0.00659642       2.08881107       74 
W       2.33857296       1.36447109       3.88795814       74 
W       4.50999922       2.65483012       2.95417805       74 
W       0.09335822       0.06481412       4.81747495       74 
W       2.33876450       1.36350070       6.60703884       74 
W       4.51679772       2.61550296       5.67513117       74 
W       0.01840002       0.07249494       7.60048473       74 
W       2.25992415       1.31857404       9.36196751       74 
W       4.56592006       2.69105198       8.49515645       74 
W       0.06951428       0.09484549      10.25867232       74 
W       2.26661367       1.36304977      12.16435558       74 
W       4.55504847       2.59633368      11.19617206       74 
W       0.00851882       0.08752703      13.09665545       74 
W       2.31844841       1.29902854      14.91027495       74 
W       4.58039494       2.61952480      14.01108530       74 
W       0.04075717       0.04151688      15.77127125       74 
W       2.34417315       1.32783135      17.60291231       74 
W       4.49236378       2.67316837      16.71863235       74 
W       0.04681286       0.07794490      18.53012457       74 
W       2.25644359       1.38467689      20.42937752       74 
W       4.55139389       2.65743751      19.46848420       74 
W       0.07320430       0.09590194      21.30520031       74 
W       2.32597846       1.34523015      23.16180281       74 
W       4.55073196       2.64028047      22.21752637       74 
W       0.04748054       0.04260348      24.08134900       74 
W       2.25731322       1.30985733      25.86994782       74 
W       4.50410321       2.66328120      24.97772528       74 
W       0.02901462       0.05350909      26.83352481       74 
W       2.30370986       1.30516766       1.12725460       74 
W       4.51037716       2.66567402       0.26298896       74 
30
Lattice="4.491214286570765 0.0 0.0 2.245607143285383 3.889505666009886 0.0 0.0 0.0 37.50295831899089" Properties=species:S:1:pos:R:3:Z:I:1:forces:R:3 pbc="T T T"
W       0.05630361       0.01346697       2.07750406       74      -0.02732289       0.38172511      -0.75070631 
W       2.32809645       1.35734457       3.86745138       74      -0.48074133      -0.32421917      -0.97684217 
W       4.52210709       2.64981573       2.94575407       74       0.57859099      -0.26239368      -0.31951069 
W       0.08485705       0.06235965       4.81798270       74      -0.42814148      -0.13912991      -0.04413756 
W       2.32798714       1.36215687       6.61868165       74      -0.52093168      -0.06796612       0.52776458 
W       4.53036596       2.62695943       5.69193451       74       0.57249477       0.53423951       0.70991863 
W       0.02787341       0.06899008       7.58382762       74       0.49431518      -0.16155071      -0.73412108 
W       2.27106537       1.33111781       9.36913140       74       0.51837152       0.58774886       0.36155340 
W       4.55787436       2.68166311       8.48316915       74      -0.36967532      -0.49452793      -0.48025219 
W       0.06296147       0.08179201      10.27573886       74      -0.33128986      -0.59060795       0.76250265 
W       2.27472434       1.35932473      12.15726937       74       0.38667559      -0.21200307      -0.34258553 
W       4.54765716       2.61251564      11.20556052       74      -0.32497884       0.77562582       0.42532184 
W       0.02091980       0.07346521      13.08273939       74       0.59310439      -0.65081926      -0.63298369 
W       2.31000946       1.31230967      14.90531042       74      -0.37275307       0.61948405      -0.26498731 
W       4.56721812       2.62492887      14.00077904       74      -0.62507749       0.26485220      -0.53310961 
W       0.04609591       0.03993040      15.78144114       74       0.19633760      -0.00823370       0.48828085 
W       2.32845512       1.33688070      17.61398040       74      -0.73757528       0.41191654       0.52827388 
W       4.50804047       2.66252377      16.72053293       74       0.76347800      -0.48320426       0.06886496 
W       0.04756624       0.07437082      18.53661446       74       0.04188252      -0.18441578       0.33106385 
W       2.26906485       1.38085624      20.41365523       74       0.61663677      -0.21852714      -0.71279508 
W       4.54933884       2.66020635      19.46798700       74      -0.11080544       0.10549281       0.01711670 
W       0.06738860       0.08779623      21.30556496       74      -0.28457644      -0.39430699       0.05528982 
W       2.31870300       1.34777880      23.17590736       74      -0.41135719       0.12715252       0.71030850 
W       4.54936469       2.64594350      22.21974269       74      -0.07360766       0.25575215       0.10294175 
W       0.04669112       0.04378659      24.08895670       74      -0.04882640       0.08757130       0.34474490 
W       2.26019804       1.31686292      25.87435315       74       0.17911223       0.38442217       0.29574006 
W       4.50960896       2.65746054      24.98352894       74       0.30922020      -0.29913315       0.44302181 
W       0.02781725       0.05093157      26.80548131       74      -0.06281693      -0.14113503      -1.72287003 
W       2.29983700       1.31220186       1.13079496       74      -0.20413767       0.39346568       0.14841076 
W       4.51283636       2.66048621       0.28216342       74       0.16439961      -0.29727513       1.19379286 
30
Lattice="4.491214286570765 0.0 0.0 2.245607143285383 3.889505666009886 0.0 0.0 0.0 37.50295831899089" Properties=species:S:1:pos:R:3:Z:I:1:forces:R:3 pbc="T T T"
W       0.05491027       0.03278601       2.03974647       74      -0.02213565       0.11106228      -0.59690704 
W       2.30357139       1.34079798       3.81770112       74       0.05264206       0.04617562       0.12870131 
W       4.55157044       2.63650488       2.92929813       74      -0.06986745      -0.02014552       0.27360787 
W       0.06310394       0.05532362       4.81588801       74      -0.03066352      -0.03220623      -0.19333589 
W       2.30147319       1.35870425       6.64562072       74       0.04471598      -0.03121833      -0.12541021 
W       4.55968851       2.65419385       5.72829342       74      -0.18854069      -0.07870834      -0.28425238 
W       0.05295218       0.06075023       7.54630598       74       0.04412997       0.03694830       0.20456570 
W       2.29749354       1.36107359       9.38749968       74      -0.09023515      -0.10327815       0.00435102 
W       4.53901645       2.65658300       8.45850652       74       0.07070165      -0.05411504       0.29905861 
W       0.04613192       0.05164257      10.31468605       74       0.01293388       0.14419989      -0.23314632 
W       2.29441689       1.34860498      12.13983289       74      -0.06095072      -0.05048387       0.03049948 
W       4.53104530       2.65200726      11.22727114       74       0.16330687      -0.12027845      -0.12212951 
W       0.05112107       0.04027654      13.05043465       74      -0.11056841       0.17862828       0.15153853 
W       2.29095969       1.34388932      14.89187861       74       0.10730921      -0.08613082      -0.06416380 
W       4.53537728       2.63840105      13.97372251       74       0.10293541      -0.01458004      -0.01038037 
W       0.05622533       0.03936005      15.80630052       74      -0.14021975       0.16935319      -0.03109762 
W       2.29086563       1.35790242      17.64088288       74       0.14027424      -0.10358864      -0.04387346 
W       4.54688667       2.63786084      16.72408879       74      -0.11045106       0.14028585      -0.04210063 
W       0.04968585       0.06501035      18.55342628       74       0.03307480      -0.02431121       0.03918852 
W       2.30043538       1.36980864      20.37727176       74      -0.04078817      -0.08519666       0.21464255 
W       4.54372452       2.66563827      19.46876725       74      -0.02703002      -0.09352134       0.11334405 
W       0.05291214       0.06773267      21.30829582       74       0.00533545      -0.00122031       0.11806362 
W       2.29789800       1.35424175      23.21199695       74      -0.10159653      -0.01411334      -0.01396469 
W       4.54563488       2.65900029      22.22499138       74      -0.04858526      -0.05843062       0.03079150 
W       0.04422958       0.04817657      24.10655403       74      -0.02654332       0.08517686      -0.16562406 
W       2.26922667       1.33632770      25.88922248       74       0.10233001       0.07979213       0.22078473 
W       4.52525215       2.64227482      25.00571837       74       0.07081234      -0.00821533       0.47256792 
W       0.02463097       0.04378477      26.71860399       74       0.00647356      -0.01252470      -0.88082472 
W       2.28948441       1.33211000       1.13839885       74       0.00747522       0.10267720      -0.10795718 
W       4.52110320       2.64545856       0.34233406       74       0.10372379      -0.10203132       0.61343875 
30
Lattice="4.491214286570765 0.0 0.0 2.245607143285383 3.889505666009886 0.0 0.0 0.0 37.50295831899089" Properties=species:S:1:pos:R:3:Z:I:1:forces:R:3 pbc="T T T"
W       0.05450002       0.03548167       2.02907737       74      -0.02174734       0.08297905      -0.51953965 
W       2.30284433       1.34045911       3.81661267       74       0.05534060       0.05731039       0.13953325 
W       4.55230526       2.63545209       2.93219273       74      -0.09142842       0.00977720       0.26070683 
W       0.06139020       0.05446714       4.81303882       74      -0.01107447      -0.02442851      -0.16861811 
W       2.30055524       1.35804536       6.64543750       74       0.05976118      -0.02899165      -0.12793828 
W       4.55880140       2.65468825       5.72644977       74      -0.17921730      -0.09637068      -0.22625284 
W       0.05502873       0.06079040       7.54696256       74       0.00032027       0.02453361       0.17520884 
W       2.29777167       1.36136688       9.38862886       74      -0.08732657      -0.11616225      -0.01738958 
W       4.53890254       2.65436694       8.46126804       74       0.07824531      -0.01588711       0.23863549 
W       0.04534700       0.05190214      10.31367938       74       0.03579991       0.13207050      -0.20639952 
W       2.29470007       1.34728053      12.13924539       74      -0.06246912      -0.01795159       0.03153831 
W       4.53240379       2.65259668      11.22681437       74       0.13847000      -0.13279660      -0.11026934 
W       0.05130086       0.04088121      13.05067521       74      -0.10805146       0.16890044       0.13939751 
W       2.29134531       1.34453781      14.89018012       74       0.09470326      -0.07868086      -0.03222926 
W       4.53497845       2.63898093      13.97202207       74       0.10879077      -0.01431595       0.01930838 
W       0.05487130       0.04169876      15.80732597       74      -0.11335515       0.13591041      -0.04772582 
W       2.29065649       1.35767217      17.64184775       74       0.14340010      -0.09640113      -0.05414583 
W       4.54756125       2.63840426      16.72372045       74      -0.12657162       0.14011788      -0.03358978 
W       0.05028864       0.06411676      18.55497153       74       0.02488349      -0.01941271       0.02710912 
W       2.30168839       1.36795770      20.37818481       74      -0.07071318      -0.06797388       0.22349993 
W       4.54301321       2.66463464      19.47040949       74      -0.00894034      -0.09509422       0.10086709 
W       0.05213640       0.06652699      21.31012927       74       0.00890202       0.00641568       0.08389035 
W       2.29527038       1.35441151      23.21388711       74      -0.06048533      -0.01757651      -0.03879735 
W       4.54471194       2.65894780      22.22576299       74      -0.04582907      -0.06470300       0.04665692 
W       0.04371136       0.04963759      24.10520415       74      -0.01933954       0.06746765      -0.19738970 
W       2.27119959       1.33857890      25.89321002       74       0.08308379       0.04991327       0.16942273 
W       4.52714891       2.64128220      25.01370592       74       0.03974347       0.01694512       0.42625149 
W       0.02454526       0.04320430      26.70112161       74       0.02001430       0.00309719      -0.71560452 
W       2.28900813       1.33471086       1.13730246       74       0.02352934       0.06547283      -0.09398187 
W       4.52304134       2.64314530       0.35447059       74       0.09156182      -0.07416426       0.50787755 
30
Lattice="4.491214286570765 0.0 0.0 2.245607143285383 3.889505666009886 0.0 0.0 0.0 37.50295831899089" Properties=species:S:1:pos:R:3:Z:I:1:forces:R:3 pbc="T T T"
W       0.05358073       0.04008685       2.00729199       74      -0.01751339       0.03910849      -0.34464447 
W       2.30270071       1.34104015       3.81743413       74       0.02846753       0.05541314       0.09345207 
W       4.55155868       2.63462912       2.94008521       74      -0.08961562       0.04993934       0.19598298 
W       0.05913077       0.05302193       4.80683323       74       0.00392309      -0.01349276      -0.10620143 
W       2.30044491       1.35669507       6.64316094       74       0.04974652      -0.02507978      -0.09633439 
W       4.55497327       2.65360321       5.72134142       74      -0.11708125      -0.09087250      -0.06758354 
W       0.05721308       0.06102265       7.55009078       74      -0.05055775      -0.00963738       0.06803030 
W       2.29685902       1.35976118       9.38957891       74      -0.04514567      -0.09563678      -0.03835235 
W       4.54007545       2.65165390       8.46783548       74       0.06293981       0.02598537       0.08114746 
W       0.04519232       0.05410665      10.30950964       74       0.05465290       0.06438394      -0.09968766 
W       2.29409628       1.34569283      12.13892908       74      -0.03646346       0.02932853       0.01499699 
W       4.53606801       2.65113797      11.22465562       74       0.06139865      -0.09810613      -0.05463074 
W       0.04989768       0.04420951      13.05296922       74      -0.05996825       0.10024458       0.07130073 
W       2.29313685       1.34436271      14.88781901       74       0.04383883      -0.02584241       0.01601463 
W       4.53621253       2.63957512      13.97044832       74       0.07518877       0.00329693       0.04191771 
W       0.05168058       0.04652361      15.80775694       74      -0.04437439       0.06241626      -0.04630805 
W       2.29264805       1.35597318      17.64219941       74       0.09372425      -0.05285287      -0.03601553 
W       4.54624711       2.64134375      16.72283647       74      -0.09864679       0.09777003      -0.00780719 
W       0.05139444       0.06264012      18.55736780       74       0.00712475      -0.01768391       0.01677606 
W       2.30184934       1.36458808      20.38309108       74      -0.08482697      -0.04215250       0.17748320 
W       4.54217439       2.66172285      19.47407122       74       0.01581065      -0.08046504       0.06858274 
W       0.05124166       0.06504953      21.31344479       74       0.00030676      -0.00192753       0.01438354 
W       2.29134160       1.35431272      23.21550873       74      -0.00140941      -0.01434082      -0.04499475 
W       4.54273638       2.65777238      22.22785544       74      -0.03769300      -0.05682709       0.07224416 
W       0.04280337       0.05244391      24.09968840       74      -0.00670008       0.03081289      -0.22224379 
W       2.27494012       1.34200848      25.90058767       74       0.04673943       0.01015175       0.06402969 
W       4.52990035       2.64057724      25.03078142       74      -0.00573921       0.04584395       0.30513226 
W       0.02496675       0.04270708      26.66823517       74       0.04357669       0.02578658      -0.40223281 
W       2.28898861       1.33875206       1.13452285       74       0.03989290       0.01001926      -0.04514783 
W       4.52697440       2.63921303       0.37760957       74       0.06840407      -0.02558543       0.31070727 
30
Lattice="4.491214286570765 0.0 0.0 2.245607143285383 3.889505666009886 0.0 0.0 0.0 37.50295831899089" Properties=species:S:1:pos:R:3:Z:I:1:forces:R:3 pbc="T T T"
W       0.05203616       0.04652174       1.97313785       74      -0.00591774      -0.02365032      -0.04810399 
W       2.30272901       1.34292857       3.81986534       74      -0.02463689       0.03305321       0.00086879 
W       4.54873896       2.63506729       2.95391287       74      -0.05798681       0.08393781       0.08825248 
W       0.05635705       0.05094483       4.79710024       74       0.01009318       0.00421429      -0.00685341 
W       2.30118017       1.35440550       6.63851850       74       0.01037740      -0.01978666      -0.03776743 
W       4.54822845       2.65035137       5.71511727       74      -0.00731326      -0.05393842       0.13581139 
W       0.05846491       0.06069610       7.55431211       74      -0.08639988      -0.05354575      -0.08682993 
W       2.29525066       1.35590156       9.38979547       74       0.02651411      -0.03896590      -0.05365461 
W       4.54274369       2.64906873       8.47631901       74       0.02098692       0.05282935      -0.12923017 
W       0.04635125       0.05751892      10.30321659       74       0.05788338      -0.04343732       0.05518638 
W       2.29287093       1.34476472      12.13860319       74       0.01323284       0.07122113      -0.00929637 
W       4.54128084       2.64760435      11.22134259       74      -0.04487690      -0.01766086       0.02894957 
W       0.04738915       0.04987713      13.05664529       74       0.02072630      -0.00987192      -0.03301676 
W       2.29579202       1.34428230      14.88558593       74      -0.03187275       0.05579679       0.06587436 
W       4.53898840       2.64067376      13.96948637       74       0.00738021       0.03410343       0.05025794 
W       0.04736781       0.05335642      15.80741250       74       0.05023979      -0.03452820      -0.02055539 
W       2.29661413       1.35315936      17.64217979       74      -0.00242886       0.01596938       0.01287153 
W       4.54280614       2.64676316      16.72183070       74      -0.02536558       0.01425992       0.03405461 
W       0.05280161       0.06030891      18.56080634       74      -0.01879112      -0.01619481       0.00488049 
W       2.30014313       1.35951115      20.39275294       74      -0.07043785      -0.01082556       0.07570496 
W       4.54168023       2.65633958      19.47999633       74       0.03209377      -0.04229779       0.01782113 
W       0.04993074       0.06290312      21.31731192       74      -0.01664087      -0.02314538      -0.07168725 
W       2.28678689       1.35392583      23.21667827       74       0.06047962      -0.00404706      -0.03539397 
W       4.53940231       2.65512538      22.23249199       74      -0.02058142      -0.03189429       0.08384768 
W       0.04160538       0.05638261      24.08734617       74       0.00648664      -0.02191781      -0.23251947 
W       2.28046819       1.34632091      25.91046695       74      -0.00420883      -0.03171524      -0.08580210 
W       4.53289588       2.64094580      25.05847142       74      -0.05292980       0.06587640       0.07847114 
W       0.02674515       0.04286804      26.61976628       74       0.07295915       0.05132978       0.08445658 
W       2.29000141       1.34368153       1.13048526       74       0.05123043      -0.05227658       0.03400629 
W       4.53337680       2.63402814       0.41258493       74       0.02970460       0.04710774      -0.00058530 
30
Lattice="4.491214286570765 0.0 0.0 2.245607143285383 3.889505666009886 0.0 0.0 0.0 37.50295831899089" Properties=species:S:1:pos:R:3:Z:I:1:forces:R:3 pbc="T T T"
W       0.05192548       0.04623848       1.97175146       74      -0.00567085      -0.01471948      -0.03297896 
W       2.30260075       1.34357215       3.82037206       74      -0.02903599       0.02433798      -0.00728260 
W       4.54762414       2.63632040       2.95570135       74      -0.03955863       0.06592688       0.06249332 
W       0.05658333       0.05099792       4.79671560       74       0.00040055       0.00438725      -0.00266542 
W       2.30155432       1.35409321       6.63762139       74      -0.00259352      -0.01985678      -0.02934438 
W       4.54765855       2.64929407       5.71641025       74      -0.00011506      -0.03742591       0.11144873 
W       0.05714487       0.06003337       7.55360456       74      -0.06095226      -0.04672138      -0.07668934 
W       2.29533532       1.35500507       9.38892227       74       0.02666369      -0.02515829      -0.04360656 
W       4.54326542       2.64989139       8.47507342       74       0.01063883       0.02862459      -0.10586253 
W       0.04730197       0.05729664      10.30341610       74       0.04190263      -0.04091063       0.04405624 
W       2.29285014       1.34577212      12.13862125       74       0.01696842       0.05251666      -0.00731520 
W       4.54098862       2.64693070      11.22144044       74      -0.03478540      -0.00386082       0.02337300 
W       0.04733598       0.05020976      13.05659764       74       0.02224383      -0.00931247      -0.02977639 
W       2.29561353       1.34476283      14.88651173       74      -0.02711162       0.05178887       0.05159324 
W       4.53944277       2.64106133      13.97035256       74      -0.00037860       0.03434449       0.03569889 
W       0.04781228       0.05312639      15.80692261       74       0.04083980      -0.02420510      -0.00656338 
W       2.29701904       1.35310331      17.64213862       74      -0.01135255       0.01502559       0.02309981 
W       4.54204073       2.64733080      16.72223488       74      -0.00913650       0.00390897       0.03511288 
W       0.05257018       0.06009432      18.56083681       74      -0.01780191      -0.01554283       0.00597837 
W       2.29888290       1.35928885      20.39438748       74      -0.04949074      -0.01495105       0.04944032 
W       4.54213130       2.65555601      19.48042294       74       0.01778718      -0.03191263       0.01581527 
W       0.04978606       0.06268708      21.31644928       74      -0.01732201      -0.02646945      -0.06587964 
W       2.28762170       1.35380761      23.21593319       74       0.04225699      -0.00290269      -0.02093065 
W       4.53905380       2.65449970      22.23371208       74      -0.01668453      -0.02517163       0.06308883 
W       0.04167208       0.05617336      24.08364491       74       0.00563392      -0.01856360      -0.16251060 
W       2.28051206       1.34587327      25.90948602       74      -0.00091220      -0.01827317      -0.08443897 
W       4.53215203       2.64196933      25.06019408       74      -0.03826095       0.05063658       0.06004588 
W       0.02782299       0.04362890      26.62013899       74       0.06435409       0.04453431       0.04978629 
W       2.29081061       1.34297117       1.13076244       74       0.04112269      -0.03779992       0.03723810 
W       4.53391451       2.63463727       0.41316421       74       0.03035164       0.03772369       0.00759058 
30
Lattice="4.491214286570765 0.0 0.0 2.245607143285383 3.889505666009886 0.0 0.0 0.0 37.50295831899089" Properties=species:S:1:pos:R:3:Z:I:1:forces:R:3 pbc="T T T"
W       0.05143651       0.04593559       1.96607913       74      -0.00274078       0.00668381       0.02377586 
W       2.30106126       1.34538024       3.82059867       74      -0.02306916       0.00487795       0.00272956 
W       4.54468836       2.64042474       2.96130324       74       0.00082137       0.00867948       0.00129529 
W       0.05645458       0.05107082       4.79541121       74      -0.02017559       0.00701060       0.00576452 
W       2.30168345       1.35266680       6.63507781       74      -0.02480509      -0.01727881      -0.01651890 
W       4.54659708       2.64645035       5.72201954       74      -0.00050423       0.00053766      -0.00543466 
W       0.05345857       0.05725846       7.54981820       74       0.00968926      -0.01680200      -0.01240803 
W       2.29654457       1.35281192       9.38619260       74       0.00687767      -0.00137525      -0.01697939 
W       4.54436536       2.65149343       8.46993844       74      -0.01019634      -0.03622559      -0.00247212 
W       0.05007324       0.05547670      10.30500955       74      -0.00068561      -0.00859811      -0.02057442 
W       2.29357761       1.34887909      12.13828347       74       0.01359326      -0.00316111       0.00794581 
W       4.53963804       2.64598889      11.22229346       74       0.01408479       0.01273933      -0.01114599 
W       0.04814898       0.05056949      13.05550322       74       0.00571584       0.01740045       0.00442900 
W       2.29445277       1.34760795      14.88944068       74       0.00387683       0.01565228       0.00961339 
W       4.53999197       2.64314994      13.97257106       74      -0.00286667       0.02331108       0.00380825 
W       0.04965848       0.05250068      15.80628988       74      -0.00106282       0.01498984       0.02350499 
W       2.29709197       1.35350610      17.64331629       74      -0.01345227      -0.00375265       0.03479476 
W       4.54080416       2.64839581      16.72418853       74       0.01480024      -0.00931072       0.03012685 
W       0.05164707       0.05895909      18.56146506       74      -0.01279296      -0.00867468       0.00228113 
W       2.29547657       1.35787504      20.39880550       74      -0.00007126      -0.02294463      -0.00994362 
W       4.54318107       2.65296603      19.48207218       74      -0.02568181      -0.00454529       0.01022427 
W       0.04870697       0.06100490      21.31297088       74      -0.01019374      -0.02382526      -0.02928082 
W       2.28977008       1.35355037      23.21452252       74      -0.00911380      -0.00478331      -0.00413552 
W       4.53769564       2.65257616      22.23799571       74      -0.00297645      -0.01140407      -0.00737215 
W       0.04187501       0.05548696      24.07210038       74       0.00234162      -0.00527864       0.03001136 
W       2.28103537       1.34513198      25.90549719       74       0.00978083       0.01801052      -0.06959381 
W       4.53009248       2.64516290      25.06683513       74       0.00469439       0.00636308      -0.00686165 
W       0.03193177       0.04637197      26.61825697       74       0.03403127       0.02449221      -0.01773338 
W       2.29347305       1.34113437       1.13246271       74       0.01329787       0.00485357       0.03481390 
W       4.53641546       2.63643992       0.41722212       74       0.02678282       0.01235623       0.00533646 
30
Lattice="4.491214286570765 0.0 0.0 2.245607143285383 3.889505666009886 0.0 0.0 0.0 37.50295831899089" Properties=species:S:1:pos:R:3:Z:I:1:forces:R:3 pbc="T T T"
W       0.05134848       0.04604975       1.96582014       74      -0.00155132       0.00800974       0.02714688 
W       2.30051482       1.34557755       3.82052838       74      -0.01678818       0.00427911       0.00860050 
W       4.54450019       2.64090481       2.96180169       74       0.00013813       0.00314484      -0.00096789 
W       0.05609197       0.05116289       4.79537494       74      -0.01915989       0.00579878       0.00438904 
W       2.30126466       1.35227208       6.63467315       74      -0.02019755      -0.01534758      -0.01377929 
W       4.54657246       2.64626327       5.72257587       74      -0.00599406       0.00091353      -0.01837792 
W       0.05331290       0.05672691       7.54917234       74       0.01062986      -0.01305562      -0.00274720 
W       2.29683100       1.35266485       9.38573476       74       0.00204538      -0.00416906      -0.01307669 
W       4.54426877       2.65105425       8.46933871       74      -0.00857296      -0.03484517       0.00711403 
W       0.05028225       0.05509495      10.30497236       74      -0.00187141      -0.00254306      -0.02487657 
W       2.29389779       1.34910350      12.13831959       74       0.00987859      -0.00427751       0.00739705 
W       4.53966600       2.64619206      11.22227304       74       0.01819057       0.00860512      -0.01367562 
W       0.04839273       0.05076429      13.05537369       74       0.00242729       0.02088071       0.00917894 
W       2.29434576       1.34819157      14.88982751       74       0.00794507       0.00953108       0.00769187 
W       4.53991599       2.64372267      13.97276855       74       0.00102985       0.01867857       0.00401662 
W       0.04985038       0.05265110      15.80663909       74      -0.00523341       0.01701962       0.02153150 
W       2.29679913       1.35354840      17.64400553       74      -0.00909697      -0.00677877       0.02777231 
W       4.54100656       2.64829191      16.72482273       74       0.00941902      -0.00527382       0.02390517 
W       0.05137734       0.05870126      18.56160063       74      -0.01118465      -0.00774308       0.00253374 
W       2.29523484       1.35738155      20.39897481       74      -0.00050764      -0.02083041      -0.00960941 
W       4.54289247       2.65267127      19.48237388       74      -0.02539826      -0.00511779       0.00902273 
W       0.04841810       0.06044601      21.31222302       74      -0.00812366      -0.01964235      -0.01638905 
W       2.28979135       1.35347220      23.21441615       74      -0.01112964      -0.00599747      -0.01028650 