2
Lattice="3.285337641205205 5.2605906643668873e-23 1.3151476660917218e-23 5.2605906643668873e-23 3.285337641205205 3.2878691652293044e-23 1.3151476660917218e-23 3.2878691652293044e-23 3.285337641205205" Properties=species:S:1:pos:R:3:Z:I:1:forces:R:3 stress="-5.138602040684816e-05 -1.3079436508374278e-22 -7.847661905024566e-23 -1.3079436508374278e-22 -5.138602040684813e-05 -7.492583282008386e-21 -7.847661905024566e-23 -7.492583282008386e-21 -5.138602040684813e-05" energy=-11.9878972173 Minim_Constant_Volume=T Minim_Hydrostatic_Strain=F pbc="T T T"
Ti       0.00000000       0.00000000       0.00000000       22      -0.00000000      -0.00000000      -0.00000000 
Ti       1.64266882       1.64266882       1.64266882       22       0.00000000       0.00000000      -0.00000000 
2
Lattice="3.2577284565531754 5.216381930016537e-23 1.3040954825041343e-23 5.216381930016537e-23 3.2577284565531754 3.2602387062603355e-23 1.3040954825041343e-23 3.2602387062603355e-23 3.2577284565531754" Properties=species:S:1:pos:R:3:Z:I:1:forces:R:3 stress="-0.0159991041607021 2.6604143754982942e-22 1.1997366477306468e-38 2.6604143754982942e-22 -0.015999104160702125 -2.1697753524022e-18 1.1997366477306468e-38 -2.1697753524022e-18 -0.015999104160702108" energy=-11.9827759564 Minim_Constant_Volume=T Minim_Hydrostatic_Strain=F pbc="T T T"
Ti       0.00000000       0.00000000       0.00000000       22      -0.00000000       0.00000000      -0.00000000 
Ti       1.62886423       1.62886423       1.62886423       22       0.00000000       0.00000000       0.00000000 
2
Lattice="3.2296431930019196 5.1714108824776233e-23 1.2928527206194058e-23 5.1714108824776233e-23 3.2296431930019196 3.232131801548514e-23 1.2928527206194058e-23 3.232131801548514e-23 3.2296431930019196" Properties=species:S:1:pos:R:3:Z:I:1:forces:R:3 stress="-0.11049310792116059 2.7068859598136425e-23 -1.3534429799068207e-23 2.7068859598136425e-23 -0.11049310792116052 -4.1437953046121586e-18 -1.3534429799068207e-23 -4.1437953046121586e-18 -0.11049310792116047" energy=-11.9452246204 Minim_Constant_Volume=T Minim_Hydrostatic_Strain=F pbc="T T T"
Ti       0.00000000       0.00000000       0.00000000       22      -0.00000000      -0.00000000       0.00000000 
Ti       1.61482160       1.61482160       1.61482160       22       0.00000000      -0.00000000      -0.00000000 
2
Lattice="3.2010607808066385 5.12564378418193e-23 1.2814109460454825e-23 5.12564378418193e-23 3.2010607808066385 3.2035273651137057e-23 1.2814109460454825e-23 3.2035273651137057e-23 3.2010607808066385" Properties=species:S:1:pos:R:3:Z:I:1:forces:R:3 stress="-1.4965748183337966 2.75544158100503e-23 1.928809106703524e-22 2.75544158100503e-23 -1.4965748183337995 1.3893930690576e-17 1.928809106703524e-22 1.3893930690576e-17 -1.4965748183337997" energy=-11.46942693 Minim_Constant_Volume=T Minim_Hydrostatic_Strain=F pbc="T T T"
Ti       0.00000000       0.00000000       0.00000000       22      -0.00000000      -0.00000000      -0.00000000 
Ti       1.60053039       1.60053039       1.60053039       22       0.00000000       0.00000000       0.00000000 
2
Lattice="3.1719586174289245 5.079044443201707e-23 1.2697611108004267e-23 5.079044443201707e-23 3.1719586174289245 3.174402777001067e-23 1.2697611108004267e-23 3.174402777001067e-23 3.1719586174289245" Properties=species:S:1:pos:R:3:Z:I:1:forces:R:3 stress="-13.197696696402366 5.552189346923664e-38 -1.403117456162077e-22 5.552189346923664e-38 -13.197696696402357 1.7428786088637045e-15 -1.403117456162077e-22 1.7428786088637045e-15 -13.197696696402362" energy=-6.49011027813 Minim_Constant_Volume=T Minim_Hydrostatic_Strain=F pbc="T T T"
Ti       0.00000000       0.00000000       0.00000000       22       0.00000000      -0.00000000      -0.00000000 
Ti       1.58597931       1.58597931       1.58597931       22      -0.00000000       0.00000000       0.00000000 
2
Lattice="3.142312409898662 5.031573960834369e-23 1.2578934902085922e-23 5.031573960834369e-23 3.142312409898662 3.1447337255214805e-23 1.2578934902085922e-23 3.1447337255214805e-23 3.142312409898662" Properties=species:S:1:pos:R:3:Z:I:1:forces:R:3 stress="-72.8209928573007 -5.718871302848118e-23 5.718871302848188e-23 -5.718871302848118e-23 -72.82099285730062 3.517604517340874e-15 5.718871302848188e-23 3.517604517340874e-15 -72.82099285730067" energy=25.3719421625 Minim_Constant_Volume=T Minim_Hydrostatic_Strain=F pbc="T T T"
Ti       0.00000000       0.00000000       0.00000000       22       0.00000000       0.00000000      -0.00000000 
Ti       1.57115620       1.57115620       1.57115620       22      -0.00000000      -0.00000000      -0.00000000 
2
Lattice="3.3124904233006727 5.304068591935575e-23 1.3260171479838938e-23 5.304068591935575e-23 3.3124904233006727 3.3150428699597343e-23 1.3260171479838938e-23 3.3150428699597343e-23 3.3124904233006727" Properties=species:S:1:pos:R:3:Z:I:1:forces:R:3 stress="0.012477264013932505 -6.432944354699465e-24 -6.432944354699464e-24 -6.432944354699465e-24 0.012477264013932494 1.26291054224579e-18 -6.432944354699464e-24 1.26291054224579e-18 0.012477264013932485" energy=-11.9824483395 Minim_Constant_Volume=T Minim_Hydrostatic_Strain=F pbc="T T T"
Ti       0.00000000       0.00000000       0.00000000       22       0.00000000       0.00000000       0.00000000 
Ti       1.65624521       1.65624521       1.65624521       22       0.00000000       0.00000000       0.00000000 
2
Lattice="3.339205209427675 5.346845185956734e-23 1.3367112964891835e-23 5.346845185956734e-23 3.339205209427675 3.3417782412229586e-23 1.3367112964891835e-23 3.3417782412229586e-23 3.339205209427675" Properties=species:S:1:pos:R:3:Z:I:1:forces:R:3 stress="0.02797690305855025 -2.5321698316767252e-23 -8.862594410868536e-23 -2.5321698316767252e-23 0.02797690305855025 3.305591535064693e-18 -8.862594410868536e-23 3.305591535064693e-18 0.02797690305855024" energy=-11.9663953781 Minim_Constant_Volume=T Minim_Hydrostatic_Strain=F pbc="T T T"
Ti       0.00000000       0.00000000       0.00000000       22      -0.00000000      -0.00000000       0.00000000 
Ti       1.66960260       1.66960260       1.66960260       22       0.00000000       0.00000000       0.00000000 
2
Lattice="3.365499246431787 5.388948062646635e-23 1.3472370156616588e-23 5.388948062646635e-23 3.365499246431787 3.3680925391541466e-23 1.3472370156616588e-23 3.3680925391541466e-23 3.365499246431787" Properties=species:S:1:pos:R:3:Z:I:1:forces:R:3 stress="0.041183734639769536 1.2463788128592256e-23 2.4927576257184518e-23 1.2463788128592256e-23 0.041183734639769536 -1.9237139334931294e-18 2.4927576257184518e-23 -1.9237139334931294e-18 0.041183734639769536" energy=-11.9354351461 Minim_Constant_Volume=T Minim_Hydrostatic_Strain=F pbc="T T T"
Ti       0.00000000       0.00000000       0.00000000       22       0.00000000      -0.00000000      -0.00000000 
Ti       1.68274962       1.68274962       1.68274962       22       0.00000000       0.00000000      -0.00000000 
2
Lattice="3.3913887195764585 5.430403138381339e-23 1.3576007845953346e-23 5.430403138381339e-23 3.3913887195764585 3.394001961488336e-23 1.3576007845953346e-23 3.394001961488336e-23 3.3913887195764585" Properties=species:S:1:pos:R:3:Z:I:1:forces:R:3 stress="0.043597841969780914 1.5342775260191846e-24 -1.534277526019184e-23 1.5342775260191846e-24 0.0435978419697809 -2.0519895587625994e-18 -1.534277526019184e-23 -2.0519895587625994e-18 0.0435978419697809" energy=-11.8956235051 Minim_Constant_Volume=T Minim_Hydrostatic_Strain=F pbc="T T T"
Ti       0.00000000       0.00000000       0.00000000       22      -0.00000000       0.00000000       0.00000000 
Ti       1.69569436       1.69569436       1.69569436       22       0.00000000      -0.00000000       0.00000000 
2
Lattice="3.416888840367224 5.471234770323716e-23 1.367808692580929e-23 5.471234770323716e-23 3.416888840367224 3.419521731452322e-23 1.367808692580929e-23 3.419521731452322e-23 3.416888840367224" Properties=species:S:1:pos:R:3:Z:I:1:forces:R:3 stress="-0.03424661711290412 6.0458498434897346e-24 2.418339937395895e-23 6.0458498434897346e-24 -0.03424661711290418 1.6239264149969935e-18 2.418339937395895e-23 1.6239264149969935e-18 -0.03424661711290418" energy=-11.8803266287 Minim_Constant_Volume=T Minim_Hydrostatic_Strain=F pbc="T T T"
Ti       0.00000000       0.00000000       0.00000000       22      -0.00000000       0.00000000      -0.00000000 
Ti       1.70844442       1.70844442       1.70844442       22      -0.00000000       0.00000000      -0.00000000 
2
Lattice="3.442013925332275 5.511465882569483e-23 1.3778664706423708e-23 5.511465882569483e-23 3.442013925332275 3.444666176605927e-23 1.3778664706423708e-23 3.444666176605927e-23 3.442013925332275" Properties=species:S:1:pos:R:3:Z:I:1:forces:R:3 stress="-0.32437070689033565 1.1915816514083118e-23 9.532653211266487e-23 1.1915816514083118e-23 -0.3243707068903365 -6.081784022385832e-17 9.532653211266487e-23 -6.081784022385832e-17 -0.32437070689033637" energy=-12.0209809542 Minim_Constant_Volume=T Minim_Hydrostatic_Strain=F pbc="T T T"
Ti       0.00000000       0.00000000       0.00000000       22       0.00000000      -0.00000000      -0.00000000 
Ti       1.72100696       1.72100696       1.72100696       22      -0.00000000       0.00000000       0.00000000 
