4
Lattice="1.9385447155645537 -3.3576579416968126 -6.714435893547752e-27 1.9385447155645537 3.3576579416968126 7.711000956253684e-27 1.6268375444741524e-27 1.3603766911062114e-26 6.335581397709494" Properties=species:S:1:pos:R:3:Z:I:1:forces:R:3 cutoff=-1.0 stress="-5.3530110952514934e-05 -2.2631958289230808e-21 -7.016268594250632e-28 -2.2631958289230808e-21 -5.353011090166262e-05 -4.0503907284714715e-28 -7.016268594250632e-28 -4.0503907284714715e-28 -5.6426010619282734e-05" Minim_Constant_Volume=T nneightol=1.2 pbc="T T T" energy=-652.647338641 Minim_Hydrostatic_Strain=F
Si       1.93854472       1.11921931       0.40024014       14      -0.00000000       0.00000000       0.00065987 
Si       1.93854472      -1.11921931       3.56803084       14       0.00000000       0.00000000       0.00065987 
Si       1.93854472       1.11921931       2.76755056       14       0.00000000       0.00000000      -0.00065987 
Si       1.93854472      -1.11921931      -0.40024014       14       0.00000000      -0.00000000      -0.00065987 
4
Lattice="1.9218657222582034 -3.3287690778500836 -5.9843764856887394e-27 1.9218657222582034 3.3287690778500836 7.142614834022953e-27 1.8900656926098385e-27 1.2370625916513066e-26 6.284874387098632" Properties=species:S:1:pos:R:3:Z:I:1:forces:R:3 cutoff=-1.0 stress="-0.010663810515203046 -2.017692398823308e-18 -2.284147303778394e-26 -2.017692398823308e-18 -0.01066381050511951 2.1994560346487706e-29 -2.284147303778394e-26 2.1994560346487706e-29 -0.010647912936744684" Minim_Constant_Volume=T nneightol=1.2 pbc="T T T" energy=-652.636355413 Minim_Hydrostatic_Strain=F
Si       1.92186572       1.10958969       0.39455291       14      -0.00000000      -0.00000000       0.00139830 
Si       1.92186572      -1.10958969       3.53699010       14       0.00000000       0.00000000       0.00139830 
Si       1.92186572       1.10958969       2.74788429       14       0.00000000      -0.00000000      -0.00139830 
Si       1.92186572      -1.10958969      -0.39455291       14       0.00000000       0.00000000      -0.00139830 
4
Lattice="1.9048630467096797 -3.2993195799069897 -5.918346226745266e-27 1.9048630467096797 3.2993195799069897 7.094488298559683e-27 1.9180899774888153e-27 1.225465234947604e-26 6.233531311276469" Properties=species:S:1:pos:R:3:Z:I:1:forces:R:3 cutoff=-1.0 stress="-0.022669794292131226 -2.1290574117871127e-18 -3.015761414049006e-29 -2.1290574117871127e-18 -0.022669794270894494 -6.699453791521584e-27 -3.015761414049006e-29 -6.699453791521584e-27 -0.022538088922364877" Minim_Constant_Volume=T nneightol=1.2 pbc="T T T" energy=-652.602498001 Minim_Hydrostatic_Strain=F
Si       1.90486305       1.09977319       0.38848101       14       0.00000000      -0.00000000       0.00066717 
Si       1.90486305      -1.09977319       3.50524666       14      -0.00000000      -0.00000000       0.00066717 
Si       1.90486305       1.09977319       2.72828465       14       0.00000000      -0.00000000      -0.00066717 
Si       1.90486305      -1.09977319      -0.38848101       14       0.00000000      -0.00000000      -0.00066717 
4
Lattice="1.8869886819847523 -3.268360271838835 -1.1830479464535532e-26 1.8869886819847523 3.268360271838835 -2.559759551056894e-26 -6.121296134977869e-26 -1.303350298328311e-26 6.185014468524494" Properties=species:S:1:pos:R:3:Z:I:1:forces:R:3 cutoff=-1.0 stress="-0.037161951805211826 6.629212178395301e-18 1.6057167933854323e-27 6.629212178395301e-18 -0.037161951774880346 8.251610899888283e-18 1.6057167933854323e-27 8.251610899888283e-18 -0.037121342328433046" Minim_Constant_Volume=T nneightol=1.2 pbc="T T T" energy=-652.541393308 Minim_Hydrostatic_Strain=F
Si       1.88698868       1.08945342       0.38377530       14       0.00000000       0.00000000       0.00076007 
Si       1.88698868      -1.08945342       3.47628253       14       0.00000000      -0.00000000       0.00076007 
Si       1.88698868       1.08945342       2.70873194       14       0.00000000       0.00000000      -0.00076007 
Si       1.88698868      -1.08945342      -0.38377530       14      -0.00000000      -0.00000000      -0.00076007 
4
Lattice="1.8652966506431037 -3.2307885710936115 -2.1959297813212533e-17 1.8652966506431037 3.230788571093611 2.195929771928109e-17 -1.5364231101136946e-25 4.1574655366843035e-17 6.1585218283124" Properties=species:S:1:pos:R:3:Z:I:1:forces:R:3 cutoff=-1.0 stress="-0.0548043090226073 -2.5364630879183133e-17 6.0976034925307316e-27 -2.5364630879183133e-17 -0.0548043089889626 7.431086869147786e-19 6.0976034925307316e-27 7.431086869147786e-19 -0.05489843776664914" Minim_Constant_Volume=T nneightol=1.2 pbc="T T T" energy=-652.446665038 Minim_Hydrostatic_Strain=F
Si       1.86529665       1.07692952       0.38611041       14       0.00000000      -0.00000000      -0.00136106 
Si       1.86529665      -1.07692952       3.46537132       14      -0.00000000      -0.00000000      -0.00136106 
Si       1.86529665       1.07692952       2.69315050       14       0.00000000       0.00000000       0.00136106 
Si       1.86529665      -1.07692952      -0.38611041       14      -0.00000000       0.00000000       0.00136106 
4
Lattice="1.8417841035474096 -3.1900636445256767 -1.352608272628178e-17 1.8417841035474096 3.1900636445256763 1.3526082551834772e-17 -2.8508764875184075e-25 2.509225280979613e-17 6.141206089078821" Properties=species:S:1:pos:R:3:Z:I:1:forces:R:3 cutoff=-1.0 stress="-0.07603048781130747 6.840912847910533e-18 2.8276356678958013e-26 6.840912847910533e-18 -0.07603048778228463 6.329695951642986e-19 2.8276356678958013e-26 6.329695951642986e-19 -0.07601717517406562" Minim_Constant_Volume=T nneightol=1.2 pbc="T T T" energy=-652.312545116 Minim_Hydrostatic_Strain=F
Si       1.84178410       1.06335455       0.39305381       14      -0.00000000       0.00000000       0.00011415 
Si       1.84178410      -1.06335455       3.46365685       14       0.00000000       0.00000000       0.00011415 
Si       1.84178410       1.06335455       2.67754924       14       0.00000000      -0.00000000      -0.00011415 
Si       1.84178410      -1.06335455      -0.39305381       14      -0.00000000      -0.00000000      -0.00011415 
4
Lattice="1.9548365815535975 -3.385876281361031 1.7966404016055677e-18 1.9548365815535975 3.385876281361031 -1.7966403953850462e-18 1.0164011402868361e-26 -3.3900896650982043e-18 6.386178402251021" Properties=species:S:1:pos:R:3:Z:I:1:forces:R:3 cutoff=-1.0 stress="0.010289805303885652 5.498548491322047e-19 2.8326128081645422e-27 5.498548491322047e-19 0.010289805294063854 -9.336789969794099e-30 2.8326128081645422e-27 -9.336789969794099e-30 0.010381961897053798" Minim_Constant_Volume=T nneightol=1.2 pbc="T T T" energy=-652.636719915 Minim_Hydrostatic_Strain=F
Si       1.95483658       1.12862543       0.40519454       14       0.00000000       0.00000000      -0.00018891 
Si       1.95483658      -1.12862543       3.59828373       14       0.00000000       0.00000000      -0.00018891 
Si       1.95483658       1.12862543       2.78789467       14      -0.00000000      -0.00000000       0.00018891 
Si       1.95483658      -1.12862543      -0.40519454       14      -0.00000000      -0.00000000       0.00018891 
4
Lattice="1.9707020705116522 -3.4133561143516853 1.828197717643714e-18 1.9707020705116522 3.4133561143516853 -1.828197711194766e-18 1.0538715058068891e-26 -3.4501418777172645e-18 6.437029081626294" Properties=species:S:1:pos:R:3:Z:I:1:forces:R:3 cutoff=-1.0 stress="0.020349122960764895 4.634790099527146e-19 -1.2082273180540633e-26 4.634790099527146e-19 0.0203491229411593 7.658080174764443e-28 -1.2082273180540633e-26 7.658080174764443e-28 0.020305805870574675" Minim_Constant_Volume=T nneightol=1.2 pbc="T T T" energy=-652.604974414 Minim_Hydrostatic_Strain=F
Si       1.97070207       1.13778537       0.40929659       14       0.00000000      -0.00000000       0.00165240 
Si       1.97070207      -1.13778537       3.62781112       14       0.00000000      -0.00000000       0.00165240 
Si       1.97070207       1.13778537       2.80921796       14      -0.00000000       0.00000000      -0.00165240 
Si       1.97070207      -1.13778537      -0.40929659       14      -0.00000000       0.00000000      -0.00165240 
4
Lattice="1.985691360020574 -3.439318325570728 -2.359981708219377e-17 1.985691360020574 3.439318325570728 2.3599817087757268e-17 9.086545369875516e-27 4.4517831186471573e-17 6.491170005006675" Properties=species:S:1:pos:R:3:Z:I:1:forces:R:3 cutoff=-1.0 stress="0.029893356421586297 1.4531110124684522e-18 2.8557427542753778e-27 1.4531110124684522e-18 0.02989335638917425 -4.101791378656235e-19 2.8557427542753778e-27 -4.101791378656235e-19 0.029899583115662962" Minim_Constant_Volume=T nneightol=1.2 pbc="T T T" energy=-652.553149443 Minim_Hydrostatic_Strain=F
Si       1.98569136       1.14643944       0.41341915       14      -0.00000000       0.00000000       0.00028865 
Si       1.98569136      -1.14643944       3.65900415       14      -0.00000000       0.00000000       0.00028865 
Si       1.98569136       1.14643944       2.83216586       14       0.00000000      -0.00000000      -0.00028865 
Si       1.98569136      -1.14643944      -0.41341915       14      -0.00000000      -0.00000000      -0.00028865 
4
Lattice="2.000617345522862 -3.465170891144855 -2.68085165669096e-17 2.000617345522862 3.465170891144855 2.6808516571667754e-17 7.763261519619472e-27 5.054926466266473e-17 6.543388325756705" Properties=species:S:1:pos:R:3:Z:I:1:forces:R:3 cutoff=-1.0 stress="0.03909894578233401 -6.90273322841952e-19 2.1763936554685137e-27 -6.90273322841952e-19 0.039098945732784524 8.681709959335361e-18 2.1763936554685137e-27 8.681709959335361e-18 0.039106184489811194" Minim_Constant_Volume=T nneightol=1.2 pbc="T T T" energy=-652.481940679 Minim_Hydrostatic_Strain=F
Si       2.00061735       1.15505696       0.41666184       14      -0.00000000       0.00000000       0.00018836 
Si       2.00061735      -1.15505696       3.68835600       14      -0.00000000       0.00000000       0.00018836 
Si       2.00061735       1.15505696       2.85503233       14      -0.00000000      -0.00000000      -0.00018836 
Si       2.00061735      -1.15505696      -0.41666184       14       0.00000000      -0.00000000      -0.00018836 
4
Lattice="2.0151630286359015 -3.4903647538306437 -5.523376927350019e-17 2.0151630286359015 3.4903647538306437 5.523376928733094e-17 2.259255708477776e-26 1.0419673799622576e-16 6.595840784638199" Properties=species:S:1:pos:R:3:Z:I:1:forces:R:3 cutoff=-1.0 stress="0.047785457914956087 5.119912033804437e-18 7.133481338008502e-28 5.119912033804437e-18 0.04778545784105694 -1.5113002382313e-18 7.133481338008502e-28 -1.5113002382313e-18 0.04779995469687652" Minim_Constant_Volume=T nneightol=1.2 pbc="T T T" energy=-652.392247724 Minim_Hydrostatic_Strain=F
Si       2.01516303       1.16345492       0.41965867       14      -0.00000000       0.00000000       0.00043711 
Si       2.01516303      -1.16345492       3.71757906       14       0.00000000       0.00000000       0.00043711 
Si       2.01516303       1.16345492       2.87826172       14      -0.00000000      -0.00000000      -0.00043711 
Si       2.01516303      -1.16345492      -0.41965867       14      -0.00000000      -0.00000000      -0.00043711 
4
Lattice="2.0292205101975793 -3.514713026852477 -6.651476245297857e-17 2.0292205101975793 3.514713026852477 6.651476245275835e-17 -4.274394173204439e-28 1.2538906460769668e-16 6.64932001843915" Properties=species:S:1:pos:R:3:Z:I:1:forces:R:3 cutoff=-1.0 stress="0.05591364300015917 -1.098454830883674e-17 -1.2928913049423124e-27 -1.098454830883674e-17 0.05591364289104536 -2.1129665085293386e-18 -1.2928913049423124e-27 -2.1129665085293386e-18 0.0559364805166432" Minim_Constant_Volume=T nneightol=1.2 pbc="T T T" energy=-652.285247423 Minim_Hydrostatic_Strain=F
Si       2.02922051       1.17157101       0.42272505       14      -0.00000000       0.00000000       0.00070274 
Si       2.02922051      -1.17157101       3.74738505       14      -0.00000000       0.00000000       0.00070274 
Si       2.02922051       1.17157101       2.90193497       14       0.00000000      -0.00000000      -0.00070274 
Si       2.02922051      -1.17157101      -0.42272505       14       0.00000000      -0.00000000      -0.00070274 
