2
Lattice="2.9500590632476933 6.196704007991272e-18 2.868750597861546e-23 -1.475029531623846 2.554826091437027 -6.337947447376865e-23 4.549585605739646e-23 -8.954449000968365e-23 4.764052079069012" Properties=species:S:1:pos:R:3:Z:I:1:forces:R:3 stress="0.00033321470495140636 -1.6263032587282567e-19 -3.833188678559286e-24 -1.6263032587282567e-19 0.00033321470495140614 -2.3324147613258004e-24 -3.833188678559286e-24 -2.3324147613258004e-24 0.00039216466827803634" energy=-12.1413003399 Minim_Constant_Volume=T Minim_Hydrostatic_Strain=F pbc="T T T"
Ti       0.00000000      -0.00000000      -0.00000000       22       0.00000000       0.00000000      -0.00000000 
Ti       0.00000000       1.70321739       2.38202604       22      -0.00000000      -0.00000000       0.00000000 
2
Lattice="2.9250152386023363 -1.6390764058703377e-17 -5.9892486565131575e-24 -1.4625076193011675 2.533137503086225 -9.273577835290765e-23 -1.0508478648564386e-23 -1.766099238905167e-22 4.724830820992276" Properties=species:S:1:pos:R:3:Z:I:1:forces:R:3 stress="-0.016561635819744076 3.469446951953614e-18 1.4528116639741351e-24 3.469446951953614e-18 -0.016561635819744066 1.6788183336561657e-24 1.4528116639741351e-24 1.6788183336561657e-24 -0.01656085140259088" energy=-12.1341436669 Minim_Constant_Volume=T Minim_Hydrostatic_Strain=F pbc="T T T"
Ti      -0.00000000      -0.00000000      -0.00000000       22       0.00000000      -0.00000000      -0.00000000 
Ti       0.00000000       1.68875834       2.36241541       22       0.00000000      -0.00000000       0.00000000 
2
Lattice="2.899006484971542 5.949846788121866e-17 -1.3849101187496736e-23 -1.4495032424857703 2.5106132617211867 -1.0511775239374119e-22 -2.3189370148121378e-23 -2.0690732260592811e-22 4.686655778722492" Properties=species:S:1:pos:R:3:Z:I:1:forces:R:3 stress="-0.035070516084510756 3.469446951953614e-18 -2.5536772356194232e-25 3.469446951953614e-18 -0.03507051608451072 3.3877919389729625e-23 -2.5536772356194232e-25 3.3877919389729625e-23 -0.035061126730425156" energy=-12.1111080786 Minim_Constant_Volume=T Minim_Hydrostatic_Strain=F pbc="T T T"
Ti       0.00000000      -0.00000000       0.00000000       22      -0.00000000      -0.00000000       0.00000000 
Ti      -0.00000000       1.67374217       2.34332789       22       0.00000000       0.00000000      -0.00000000 
2
Lattice="2.8723347056143966 -6.076712282145069e-17 -3.214396957203955e-23 -1.4361673528071977 2.487514823233765 -1.341471605484618e-22 -5.273472702015365e-23 -2.7797428667906437e-22 4.648463242304714" Properties=species:S:1:pos:R:3:Z:I:1:forces:R:3 stress="-0.05556947425258099 1.3877787807814457e-17 7.925233562972829e-24 1.3877787807814457e-17 -0.05556947425258096 7.605988754873386e-24 7.925233562972829e-24 7.605988754873386e-24 -0.05555459327193683" energy=-12.0705700748 Minim_Constant_Volume=T Minim_Hydrostatic_Strain=F pbc="T T T"
Ti       0.00000000      -0.00000000      -0.00000000       22      -0.00000000      -0.00000000       0.00000000 
Ti      -0.00000000       1.65834322       2.32423162       22       0.00000000       0.00000000      -0.00000000 
2
Lattice="2.845021868798367 -2.6796142230828364e-16 -3.066864684069906e-23 -1.422510934399183 2.463861212701665 -1.0960242829060906e-23 -5.027515768038164e-23 -4.60685817301082e-23 4.610085527238897" Properties=species:S:1:pos:R:3:Z:I:1:forces:R:3 stress="-0.07828098884746404 1.3877787807814457e-17 5.7567496724388924e-24 1.3877787807814457e-17 -0.07828098884746391 -3.6028499549590774e-23 5.7567496724388924e-24 -3.6028499549590774e-23 -0.07825207661346001" energy=-12.0106822264 Minim_Constant_Volume=T Minim_Hydrostatic_Strain=F pbc="T T T"
Ti       0.00000000      -0.00000000      -0.00000000       22       0.00000000      -0.00000000      -0.00000000 
Ti      -0.00000000       1.64257414       2.30504276       22      -0.00000000       0.00000000       0.00000000 
2
Lattice="2.8175888986037534 -2.653776187206527e-16 6.384657316842964e-24 -1.4087944493018763 2.4401035636118675 3.568817268449818e-23 9.81593372231487e-24 7.589283473797693e-23 4.569730666424978" Properties=species:S:1:pos:R:3:Z:I:1:forces:R:3 stress="-0.10375044490777609 6.938893903907228e-18 -9.941627529653022e-24 6.938893903907228e-18 -0.10375044490777598 3.423694863207035e-24 -9.941627529653022e-24 3.423694863207035e-24 -0.10373522662484266" energy=-11.9292267659 Minim_Constant_Volume=T Minim_Hydrostatic_Strain=F pbc="T T T"
Ti       0.00000000      -0.00000000      -0.00000000       22       0.00000000      -0.00000000       0.00000000 
Ti      -0.00000000       1.62673571       2.28486533       22      -0.00000000       0.00000000      -0.00000000 
2
Lattice="2.9748713387690073 4.4975873807356884e-17 2.981109333457042e-23 -1.4874356693845028 2.5763141523641844 -8.977138971950872e-23 4.7323625787346744e-23 -1.3773470824507506e-22 4.802035713413861" Properties=species:S:1:pos:R:3:Z:I:1:forces:R:3 stress="0.015464355060802591 -5.204170427930421e-18 -8.092147123307625e-24 -5.204170427930421e-18 0.015464355060802595 -2.1579831448132308e-23 -8.092147123307625e-24 -2.1579831448132308e-23 0.015463505672039607" energy=-12.134056229 Minim_Constant_Volume=T Minim_Hydrostatic_Strain=F pbc="T T T"
Ti       0.00000000      -0.00000000      -0.00000000       22       0.00000000      -0.00000000      -0.00000000 
Ti       0.00000000       1.71754277       2.40101786       22      -0.00000000       0.00000000       0.00000000 
2
Lattice="2.999246358198276 4.5344389844879475e-17 7.274817399731972e-23 -1.499623179099137 2.597423538407671 -3.959373747327525e-23 1.1664469160487098e-22 -4.231230334458957e-24 4.839527031973283" Properties=species:S:1:pos:R:3:Z:I:1:forces:R:3 stress="0.029068991675611045 -3.469446951953614e-18 -7.145061686540258e-24 -3.469446951953614e-18 0.02906899167561095 -1.6506719189536005e-23 -7.145061686540258e-24 -1.6506719189536005e-23 0.029067471299393497" energy=-12.1139866686 Minim_Constant_Volume=T Minim_Hydrostatic_Strain=F pbc="T T T"
Ti       0.00000000      -0.00000000       0.00000000       22       0.00000000       0.00000000       0.00000000 
Ti       0.00000000       1.73161569       2.41976352       22       0.00000000      -0.00000000       0.00000000 
2
Lattice="3.0231920291264456 3.0488857585482687e-17 1.257778602676729e-22 -1.511596014563222 2.618161097742129 7.420681124739307e-23 2.022450512702694e-22 2.5721695391949902e-22 4.8765749531529305" Properties=species:S:1:pos:R:3:Z:I:1:forces:R:3 stress="0.04145972973865077 -2.0816681711721685e-17 -1.370022685128421e-23 -2.0816681711721685e-17 0.041459729738650725 -2.705336628078932e-23 -1.370022685128421e-23 -2.705336628078932e-23 0.04145882280569006" energy=-12.0822471585 Minim_Constant_Volume=T Minim_Hydrostatic_Strain=F pbc="T T T"
Ti       0.00000000      -0.00000000       0.00000000       22      -0.00000000       0.00000000      -0.00000000 
Ti       0.00000000       1.74544073       2.43828748       22       0.00000000      -0.00000000      -0.00000000 
2
Lattice="3.0468421838700457 -3.0101114724959567e-17 2.185263243201439e-22 -1.523421091935022 2.6386427325535196 2.10827879219015e-22 3.5192770438248565e-22 5.981775494986467e-22 4.912817895299521" Properties=species:S:1:pos:R:3:Z:I:1:forces:R:3 stress="0.05254050175603934 6.938893903907228e-18 -2.3989135293219172e-23 6.938893903907228e-18 0.052540501756039255 -7.091376572278285e-23 -2.3989135293219172e-23 -7.091376572278285e-23 0.05253671628685128" energy=-12.0399395356 Minim_Constant_Volume=T Minim_Hydrostatic_Strain=F pbc="T T T"
Ti       0.00000000      -0.00000000       0.00000000       22       0.00000000      -0.00000000      -0.00000000 
Ti       0.00000000       1.75909516       2.45640895       22       0.00000000      -0.00000000       0.00000000 
2
Lattice="3.0693125607981835 2.6755443273669384e-16 3.6163072093383145e-22 -1.5346562803990906 2.658102649805899 4.513586407074827e-22 5.825179148236019e-22 1.1789950227518104e-21 4.951173953386828" Properties=species:S:1:pos:R:3:Z:I:1:forces:R:3 stress="0.06228884702144735 -4.85722573273506e-17 -4.2871543009656507e-23 -4.85722573273506e-17 0.06228884702144728 -1.1106505665554548e-22 -4.2871543009656507e-23 -1.1106505665554548e-22 0.06228773906372782" energy=-11.9883015528 Minim_Constant_Volume=T Minim_Hydrostatic_Strain=F pbc="T T T"
Ti       0.00000000      -0.00000000       0.00000000       22      -0.00000000       0.00000000      -0.00000000 
Ti       0.00000000       1.77206843       2.47558698       22       0.00000000      -0.00000000      -0.00000000 
2
Lattice="3.090593705829346 3.781643802161263e-16 6.096016376379566e-22 -1.5452968529146718 2.676532662024507 8.79488062318078e-22 9.817848138367421e-22 2.205931560407429e-21 4.9917371110789635" Properties=species:S:1:pos:R:3:Z:I:1:forces:R:3 stress="0.07121343063883284 -6.938893903907228e-18 -6.962632170133181e-23 -6.938893903907228e-18 0.07121343063883265 -1.8299281649245946e-22 -6.962632170133181e-23 -1.8299281649245946e-22 0.0712118564928652" energy=-11.928333546 Minim_Constant_Volume=T Minim_Hydrostatic_Strain=F pbc="T T T"
Ti       0.00000000      -0.00000000       0.00000000       22      -0.00000000       0.00000000       0.00000000 
Ti       0.00000000       1.78435511       2.49586856       22      -0.00000000       0.00000000      -0.00000000 
