2
Lattice="3.2821966052961242 0.0 3.388059664364579e-37 0.0 3.2821966052961242 0.0 3.388059664364579e-37 0.0 3.2821966052961242" Properties=species:S:1:pos:R:3:Z:I:1:forces:R:3 stress="0.0004870601010832507 3.3080364111517257e-52 -3.3080623552462502e-52 3.3080364111517257e-52 0.0004870601010832507 3.4147329001521944e-89 -3.3080623552462502e-52 3.4147329001521944e-89 0.0004870601010832507" energy=-11.9792486028 Minim_Constant_Volume=T Minim_Hydrostatic_Strain=F pbc="T T T"
Ti       0.00000000       0.00000000      -0.00000000       22      -0.00000000      -0.00000000      -0.00000000 
Ti       1.64109830       1.64109830       1.64109830       22      -0.00000000      -0.00000000       0.00000000 
2
Lattice="3.2546138171518155 0.0 3.359587228620891e-37 0.0 3.2546138171518155 0.0 3.359587228620891e-37 0.0 3.2546138171518155" Properties=species:S:1:pos:R:3:Z:I:1:forces:R:3 stress="-0.010916312807835886 0.0 7.850497579590075e-55 0.0 -0.010916312807835882 0.0 7.850497579590075e-55 0.0 -0.01091631280783588" energy=-11.9734807987 Minim_Constant_Volume=T Minim_Hydrostatic_Strain=F pbc="T T T"
Ti       0.00000000       0.00000000      -0.00000000       22       0.00000000       0.00000000       0.00000000 
Ti       1.62730691       1.62730691       1.62730691       22       0.00000000       0.00000000       0.00000000 
2
Lattice="3.2265554052763887 0.0 3.330623828510164e-37 0.0 3.2265554052763887 0.0 3.330623828510164e-37 0.0 3.2265554052763887" Properties=species:S:1:pos:R:3:Z:I:1:forces:R:3 stress="-0.016802627936212358 -6.166531819220161e-36 4.25535068495666e-36 -6.166531819220161e-36 -0.016802627936212348 6.365425426377103e-73 4.25535068495666e-36 6.365425426377103e-73 -0.016802627936212344" energy=-11.9611371207 Minim_Constant_Volume=T Minim_Hydrostatic_Strain=F pbc="T T T"
Ti       0.00000000       0.00000000      -0.00000000       22      -0.00000000       0.00000000       0.00000000 
Ti       1.61327770       1.61327770       1.61327770       22      -0.00000000       0.00000000       0.00000000 
2
Lattice="3.198000320069344 0.0 3.301147735503921e-37 0.0 3.198000320069344 0.0 3.301147735503921e-37 0.0 3.198000320069344" Properties=species:S:1:pos:R:3:Z:I:1:forces:R:3 stress="-0.021814927486953118 0.0 -1.3511652166284996e-54 0.0 -0.021814927486953135 -4.8438869553087166e-18 -1.3511652166284996e-54 -4.8438869553087166e-18 -0.021814927486953135" energy=-11.9440338064 Minim_Constant_Volume=T Minim_Hydrostatic_Strain=F pbc="T T T"
Ti       0.00000000       0.00000000      -0.00000000       22       0.00000000       0.00000000       0.00000000 
Ti       1.59900016       1.59900016       1.59900016       22       0.00000000       0.00000000       0.00000000 
2
Lattice="3.168925980602042 0.0 3.271135640354514e-37 0.0 3.168925980602042 0.0 3.271135640354514e-37 0.0 3.168925980602042" Properties=species:S:1:pos:R:3:Z:I:1:forces:R:3 stress="-0.024273539056285962 0.0 7.9693715569990905e-56 0.0 -0.024273539056285962 0.0 7.9693715569990905e-56 0.0 -0.024273539056285962" energy=-11.9231293508 Minim_Constant_Volume=T Minim_Hydrostatic_Strain=F pbc="T T T"
Ti       0.00000000       0.00000000      -0.00000000       22       0.00000000       0.00000000       0.00000000 
Ti       1.58446299       1.58446299       1.58446299       22       0.00000000       0.00000000       0.00000000 
2
Lattice="3.1393081171303177 0.0 3.240562490528179e-37 0.0 3.1393081171303177 0.0 3.240562490528179e-37 0.0 3.1393081171303177" Properties=species:S:1:pos:R:3:Z:I:1:forces:R:3 stress="-0.02871132401596353 0.0 2.905801454561329e-55 0.0 -0.02871132401596353 0.0 2.905801454561329e-55 0.0 -0.02871132401596353" energy=-11.9001223681 Minim_Constant_Volume=T Minim_Hydrostatic_Strain=F pbc="T T T"
Ti       0.00000000       0.00000000      -0.00000000       22       0.00000000       0.00000000       0.00000000 
Ti       1.56965406       1.56965406       1.56965406       22       0.00000000       0.00000000       0.00000000 
2
Lattice="3.309323427239879 0.0 3.4160614273003322e-37 0.0 3.309323427239879 0.0 3.4160614273003322e-37 0.0 3.309323427239879" Properties=species:S:1:pos:R:3:Z:I:1:forces:R:3 stress="0.01364920872482576 6.587760606829322e-57 1.356807453475842e-54 6.587760606829322e-57 0.013649208724825768 -6.800240410484073e-94 1.356807453475842e-54 -6.800240410484073e-94 0.013649208724825772" energy=-11.9726281938 Minim_Constant_Volume=T Minim_Hydrostatic_Strain=F pbc="T T T"
Ti       0.00000000       0.00000000      -0.00000000       22       0.00000000       0.00000000      -0.00000000 
Ti       1.65466171       1.65466171       1.65466171       22      -0.00000000      -0.00000000      -0.00000000 
2
Lattice="3.3360126719730605 0.0 3.4436114995315136e-37 0.0 3.3360126719730605 0.0 3.4436114995315136e-37 0.0 3.3360126719730605" Properties=species:S:1:pos:R:3:Z:I:1:forces:R:3 stress="0.02576130073469636 -1.2296324229505816e-49 5.537772121802918e-34 -1.2296324229505816e-49 0.025761300734696367 -5.7201578439905736e-18 5.537772121802918e-34 -5.7201578439905736e-18 0.025761300734696357" energy=-11.955411278 Minim_Constant_Volume=T Minim_Hydrostatic_Strain=F pbc="T T T"
Ti       0.00000000       0.00000000      -0.00000000       22      -0.00000000      -0.00000000       0.00000000 
Ti       1.66800634       1.66800634       1.66800634       22      -0.00000000       0.00000000      -0.00000000 
2
Lattice="3.362281569851931 0.0 3.470727667157518e-37 0.0 3.362281569851931 0.0 3.470727667157518e-37 0.0 3.362281569851931" Properties=species:S:1:pos:R:3:Z:I:1:forces:R:3 stress="0.04320705618554342 1.4537543797078287e-32 1.153917538893089e-32 1.4537543797078287e-32 0.043207056185543415 -9.593893720692618e-18 1.153917538893089e-32 -9.593893720692618e-18 0.0432070561855434" energy=-11.9254683079 Minim_Constant_Volume=T Minim_Hydrostatic_Strain=F pbc="T T T"
Ti       0.00000000       0.00000000      -0.00000000       22       0.00000000       0.00000000       0.00000000 
Ti       1.68114078       1.68114078       1.68114078       22      -0.00000000       0.00000000       0.00000000 
2
Lattice="3.3881462906655795 0.0 3.4974266215033287e-37 0.0 3.3881462906655795 0.0 3.4974266215033287e-37 0.0 3.3881462906655795" Properties=species:S:1:pos:R:3:Z:I:1:forces:R:3 stress="0.0681523185382494 3.579108775157918e-34 -3.579108775157918e-34 3.579108775157918e-34 0.0681523185382494 -3.6945483570116025e-71 -3.579108775157918e-34 -3.6945483570116025e-71 0.0681523185382494" energy=-11.8767655531 Minim_Constant_Volume=T Minim_Hydrostatic_Strain=F pbc="T T T"
Ti       0.00000000       0.00000000      -0.00000000       22      -0.00000000      -0.00000000      -0.00000000 
Ti       1.69407315       1.69407315       1.69407315       22      -0.00000000       0.00000000      -0.00000000 
2
Lattice="3.4136220313761716 0.0 3.5237240496897124e-37 0.0 3.4136220313761716 0.0 3.5237240496897124e-37 0.0 3.4136220313761716" Properties=species:S:1:pos:R:3:Z:I:1:forces:R:3 stress="0.0980149945965836 0.0 3.73297470295835e-54 0.0 0.09801499459658361 0.0 3.73297470295835e-54 0.0 0.09801499459658362" energy=-11.8034979901 Minim_Constant_Volume=T Minim_Hydrostatic_Strain=F pbc="T T T"
Ti       0.00000000       0.00000000      -0.00000000       22       0.00000000       0.00000000       0.00000000 
Ti       1.70681102       1.70681102       1.70681102       22       0.00000000       0.00000000       0.00000000 
2
Lattice="3.438723094824194 0.0 3.549634715877007e-37 0.0 3.438723094824194 0.0 3.549634715877007e-37 0.0 3.438723094824194" Properties=species:S:1:pos:R:3:Z:I:1:forces:R:3 stress="0.1269704443204177 -1.7372999150038252e-34 6.514874681264338e-34 -1.7372999150038252e-34 0.12697044432041765 -2.8193102146282817e-17 6.514874681264338e-34 -2.8193102146282817e-17 0.1269704443204176" energy=-11.703743823 Minim_Constant_Volume=T Minim_Hydrostatic_Strain=F pbc="T T T"
Ti       0.00000000       0.00000000      -0.00000000       22       0.00000000      -0.00000000      -0.00000000 
Ti       1.71936155       1.71936155       1.71936155       22      -0.00000000       0.00000000       0.00000000 
