8
Lattice="5.458790388891591 0.0 0.0 0.0 5.458790388891591 0.0 0.0 0.0 5.458790388891591" Properties=species:S:1:pos:R:3:Z:I:1:forces:R:3 stress="4.37190087776134e-05 -5.5152646863984365e-34 0.0 -5.5152646863984365e-34 4.37190087776134e-05 5.5152646863984365e-34 0.0 5.5152646863984365e-34 4.37190087776134e-05" energy=-1305.41899221 Minim_Constant_Volume=T Minim_Hydrostatic_Strain=F pbc="T T T"
Si       0.00000000      -0.00000000       0.00000000       14      -0.00000000       0.00000000       0.00000000 
Si       1.36469760       1.36469760       1.36469760       14      -0.00000000       0.00000000      -0.00000000 
Si       2.72939519       2.72939519      -0.00000000       14       0.00000000      -0.00000000       0.00000000 
Si       4.09409279       4.09409279       1.36469760       14       0.00000000      -0.00000000      -0.00000000 
Si       2.72939519      -0.00000000       2.72939519       14       0.00000000       0.00000000       0.00000000 
Si       4.09409279       1.36469760       4.09409279       14      -0.00000000      -0.00000000      -0.00000000 
Si      -0.00000000       2.72939519       2.72939519       14      -0.00000000      -0.00000000       0.00000000 
Si       1.36469760       4.09409279       4.09409279       14      -0.00000000      -0.00000000       0.00000000 
8
Lattice="5.412916031889933 0.0 0.0 0.0 5.412916031889933 0.0 0.0 0.0 5.412916031889933" Properties=species:S:1:pos:R:3:Z:I:1:forces:R:3 stress="-0.015454862949535242 0.0 0.0 0.0 -0.015454862949535242 0.0 0.0 0.0 -0.015454862949535242" energy=-1305.3883752 Minim_Constant_Volume=T Minim_Hydrostatic_Strain=F pbc="T T T"
Si       0.00000000      -0.00000000       0.00000000       14       0.00000000       0.00000000       0.00000000 
Si       1.35322901       1.35322901       1.35322901       14      -0.00000000       0.00000000       0.00000000 
Si       2.70645802       2.70645802      -0.00000000       14      -0.00000000      -0.00000000      -0.00000000 
Si       4.05968702       4.05968702       1.35322901       14      -0.00000000       0.00000000      -0.00000000 
Si       2.70645802      -0.00000000       2.70645802       14      -0.00000000       0.00000000       0.00000000 
Si       4.05968702       1.35322901       4.05968702       14       0.00000000       0.00000000       0.00000000 
Si      -0.00000000       2.70645802       2.70645802       14      -0.00000000      -0.00000000      -0.00000000 
Si       1.35322901       4.05968702       4.05968702       14       0.00000000       0.00000000      -0.00000000 
8
Lattice="5.366250640540129 0.0 0.0 0.0 5.366250640540129 0.0 0.0 0.0 5.366250640540129" Properties=species:S:1:pos:R:3:Z:I:1:forces:R:3 stress="-0.03289931087732737 -2.853561874532842e-34 0.0 -2.853561874532842e-34 -0.03289931087732737 2.853561874532842e-34 0.0 2.853561874532842e-34 -0.03289931087732737" energy=-1305.29067124 Minim_Constant_Volume=T Minim_Hydrostatic_Strain=F pbc="T T T"
Si       0.00000000      -0.00000000       0.00000000       14      -0.00000000      -0.00000000       0.00000000 
Si       1.34156266       1.34156266       1.34156266       14      -0.00000000       0.00000000      -0.00000000 
Si       2.68312532       2.68312532      -0.00000000       14       0.00000000       0.00000000       0.00000000 
Si       4.02468798       4.02468798       1.34156266       14      -0.00000000       0.00000000      -0.00000000 
Si       2.68312532      -0.00000000       2.68312532       14      -0.00000000      -0.00000000       0.00000000 
Si       4.02468798       1.34156266       4.02468798       14       0.00000000      -0.00000000      -0.00000000 
Si      -0.00000000       2.68312532       2.68312532       14       0.00000000       0.00000000       0.00000000 
Si       1.34156266       4.02468798       4.02468798       14      -0.00000000       0.00000000      -0.00000000 
8
Lattice="5.318759206166369 0.0 0.0 0.0 5.318759206166369 0.0 0.0 0.0 5.318759206166369" Properties=species:S:1:pos:R:3:Z:I:1:forces:R:3 stress="-0.05222027530145732 1.452374270617553e-34 0.0 1.452374270617553e-34 -0.052220275301457335 -1.0892807029631647e-34 0.0 -1.0892807029631647e-34 -0.05222027530145732" energy=-1305.11828654 Minim_Constant_Volume=T Minim_Hydrostatic_Strain=F pbc="T T T"
Si       0.00000000      -0.00000000       0.00000000       14       0.00000000       0.00000000      -0.00000000 
Si       1.32968980       1.32968980       1.32968980       14      -0.00000000      -0.00000000      -0.00000000 
Si       2.65937960       2.65937960      -0.00000000       14      -0.00000000      -0.00000000      -0.00000000 
Si       3.98906940       3.98906940       1.32968980       14      -0.00000000       0.00000000       0.00000000 
Si       2.65937960      -0.00000000       2.65937960       14      -0.00000000       0.00000000      -0.00000000 
Si       3.98906940       1.32968980       3.98906940       14       0.00000000       0.00000000      -0.00000000 
Si      -0.00000000       2.65937960       2.65937960       14       0.00000000      -0.00000000      -0.00000000 
Si       1.32968980       3.98906940       3.98906940       14       0.00000000       0.00000000      -0.00000000 
8
Lattice="5.270404173262069 0.0 0.0 0.0 5.270404173262069 0.0 0.0 0.0 5.270404173262069" Properties=species:S:1:pos:R:3:Z:I:1:forces:R:3 stress="-0.07393511355415248 0.0 0.0 0.0 -0.07393511355415248 0.0 0.0 0.0 -0.07393511355415248" energy=-1304.86272681 Minim_Constant_Volume=T Minim_Hydrostatic_Strain=F pbc="T T T"
Si       0.00000000      -0.00000000       0.00000000       14       0.00000000       0.00000000      -0.00000000 
Si       1.31760104       1.31760104       1.31760104       14      -0.00000000       0.00000000      -0.00000000 
Si       2.63520209       2.63520209      -0.00000000       14      -0.00000000      -0.00000000      -0.00000000 
Si       3.95280313       3.95280313       1.31760104       14      -0.00000000      -0.00000000      -0.00000000 
Si       2.63520209      -0.00000000       2.63520209       14       0.00000000       0.00000000      -0.00000000 
Si       3.95280313       1.31760104       3.95280313       14      -0.00000000       0.00000000      -0.00000000 
Si      -0.00000000       2.63520209       2.63520209       14       0.00000000       0.00000000      -0.00000000 
Si       1.31760104       3.95280313       3.95280313       14       0.00000000      -0.00000000      -0.00000000 
8
Lattice="5.2211451775644715 0.0 0.0 0.0 5.2211451775644715 0.0 0.0 0.0 5.2211451775644715" Properties=species:S:1:pos:R:3:Z:I:1:forces:R:3 stress="-0.09888286277216714 -6.028755314202828e-34 0.0 -6.028755314202828e-34 -0.09888286277216714 6.028755314202828e-34 0.0 6.028755314202828e-34 -0.09888286277216714" energy=-1304.51256604 Minim_Constant_Volume=T Minim_Hydrostatic_Strain=F pbc="T T T"
Si       0.00000000      -0.00000000       0.00000000       14      -0.00000000       0.00000000      -0.00000000 
Si       1.30528629       1.30528629       1.30528629       14       0.00000000      -0.00000000      -0.00000000 
Si       2.61057259       2.61057259      -0.00000000       14       0.00000000      -0.00000000      -0.00000000 
Si       3.91585888       3.91585888       1.30528629       14       0.00000000      -0.00000000      -0.00000000 
Si       2.61057259      -0.00000000       2.61057259       14      -0.00000000       0.00000000       0.00000000 
Si       3.91585888       1.30528629       3.91585888       14       0.00000000      -0.00000000      -0.00000000 
Si      -0.00000000       2.61057259       2.61057259       14       0.00000000      -0.00000000       0.00000000 
Si       1.30528629       3.91585888       3.91585888       14       0.00000000      -0.00000000      -0.00000000 
8
Lattice="5.503906404997635 0.0 0.0 0.0 5.503906404997635 0.0 0.0 0.0 5.503906404997635" Properties=species:S:1:pos:R:3:Z:I:1:forces:R:3 stress="0.013258878849973586 -5.425217027709716e-34 0.0 -5.425217027709716e-34 0.013258878849973581 5.425217027709716e-34 0.0 5.425217027709716e-34 0.013258878849973586" energy=-1305.39112928 Minim_Constant_Volume=T Minim_Hydrostatic_Strain=F pbc="T T T"
Si       0.00000000      -0.00000000       0.00000000       14       0.00000000       0.00000000      -0.00000000 
Si       1.37597660       1.37597660       1.37597660       14       0.00000000      -0.00000000       0.00000000 
Si       2.75195320       2.75195320      -0.00000000       14       0.00000000      -0.00000000      -0.00000000 
Si       4.12792980       4.12792980       1.37597660       14      -0.00000000       0.00000000      -0.00000000 
Si       2.75195320      -0.00000000       2.75195320       14       0.00000000       0.00000000      -0.00000000 
Si       4.12792980       1.37597660       4.12792980       14       0.00000000      -0.00000000      -0.00000000 
Si      -0.00000000       2.75195320       2.75195320       14       0.00000000      -0.00000000      -0.00000000 
Si       1.37597660       4.12792980       4.12792980       14       0.00000000       0.00000000      -0.00000000 
8
Lattice="5.5482946638853505 0.0 0.0 0.0 5.5482946638853505 0.0 0.0 0.0 5.5482946638853505" Properties=species:S:1:pos:R:3:Z:I:1:forces:R:3 stress="0.02418423960573803 -1.0677514160238068e-33 0.0 -1.0677514160238068e-33 0.02418423960573804 1.0677514160238068e-33 0.0 1.0677514160238068e-33 0.024184239605738025" energy=-1305.31429382 Minim_Constant_Volume=T Minim_Hydrostatic_Strain=F pbc="T T T"
Si       0.00000000      -0.00000000       0.00000000       14       0.00000000       0.00000000       0.00000000 
Si       1.38707367       1.38707367       1.38707367       14       0.00000000      -0.00000000      -0.00000000 
Si       2.77414733       2.77414733      -0.00000000       14      -0.00000000      -0.00000000      -0.00000000 
Si       4.16122100       4.16122100       1.38707367       14       0.00000000       0.00000000       0.00000000 
Si       2.77414733      -0.00000000       2.77414733       14      -0.00000000       0.00000000       0.00000000 
Si       4.16122100       1.38707367       4.16122100       14       0.00000000      -0.00000000      -0.00000000 
Si      -0.00000000       2.77414733       2.77414733       14       0.00000000      -0.00000000      -0.00000000 
Si       1.38707367       4.16122100       4.16122100       14      -0.00000000       0.00000000      -0.00000000 
8
Lattice="5.5919838222485545 0.0 0.0 0.0 5.5919838222485545 0.0 0.0 0.0 5.5919838222485545" Properties=species:S:1:pos:R:3:Z:I:1:forces:R:3 stress="0.03348328961705046 0.0 0.0 0.0 0.03348328961705046 0.0 0.0 0.0 0.03348328961705046" energy=-1305.19665899 Minim_Constant_Volume=T Minim_Hydrostatic_Strain=F pbc="T T T"
Si       0.00000000      -0.00000000       0.00000000       14       0.00000000       0.00000000       0.00000000 
Si       1.39799596       1.39799596       1.39799596       14      -0.00000000      -0.00000000      -0.00000000 
Si       2.79599191       2.79599191      -0.00000000       14       0.00000000       0.00000000      -0.00000000 
Si       4.19398787       4.19398787       1.39799596       14       0.00000000       0.00000000      -0.00000000 
Si       2.79599191      -0.00000000       2.79599191       14       0.00000000       0.00000000      -0.00000000 
Si       4.19398787       1.39799596       4.19398787       14      -0.00000000       0.00000000       0.00000000 
Si      -0.00000000       2.79599191       2.79599191       14       0.00000000       0.00000000      -0.00000000 
Si       1.39799596       4.19398787       4.19398787       14       0.00000000      -0.00000000       0.00000000 
8
Lattice="5.635000772897119 0.0 0.0 0.0 5.635000772897119 0.0 0.0 0.0 5.635000772897119" Properties=species:S:1:pos:R:3:Z:I:1:forces:R:3 stress="0.04221303209287916 -1.6174142236499437e-35 0.0 -1.6174142236499437e-35 0.042213032092879174 1.6174142236499437e-35 0.0 1.6174142236499437e-35 0.04221303209287916" energy=-1305.04273235 Minim_Constant_Volume=T Minim_Hydrostatic_Strain=F pbc="T T T"
Si       0.00000000      -0.00000000       0.00000000       14       0.00000000       0.00000000       0.00000000 
Si       1.40875019       1.40875019       1.40875019       14      -0.00000000       0.00000000       0.00000000 
Si       2.81750039       2.81750039      -0.00000000       14      -0.00000000       0.00000000      -0.00000000 
Si       4.22625058       4.22625058       1.40875019       14       0.00000000       0.00000000      -0.00000000 
Si       2.81750039      -0.00000000       2.81750039       14       0.00000000       0.00000000      -0.00000000 
Si       4.22625058       1.40875019       4.22625058       14       0.00000000       0.00000000      -0.00000000 
Si      -0.00000000       2.81750039       2.81750039       14       0.00000000       0.00000000      -0.00000000 
Si       1.40875019       4.22625058       4.22625058       14      -0.00000000      -0.00000000      -0.00000000 
8
Lattice="5.677370790682306 0.0 0.0 0.0 5.677370790682306 0.0 0.0 0.0 5.677370790682306" Properties=species:S:1:pos:R:3:Z:I:1:forces:R:3 stress="0.051786792551531194 1.593362896392614e-35 0.0 1.593362896392614e-35 0.051786792551531194 0.0 0.0 0.0 0.051786792551531194" energy=-1304.85230016 Minim_Constant_Volume=T Minim_Hydrostatic_Strain=F pbc="T T T"
Si       0.00000000      -0.00000000       0.00000000       14      -0.00000000       0.00000000       0.00000000 
Si       1.41934270       1.41934270       1.41934270       14      -0.00000000       0.00000000       0.00000000 
Si       2.83868540       2.83868540      -0.00000000       14      -0.00000000      -0.00000000       0.00000000 
Si       4.25802809       4.25802809       1.41934270       14       0.00000000       0.00000000       0.00000000 
Si       2.83868540      -0.00000000       2.83868540       14       0.00000000       0.00000000       0.00000000 
Si       4.25802809       1.41934270       4.25802809       14       0.00000000       0.00000000       0.00000000 
Si      -0.00000000       2.83868540       2.83868540       14       0.00000000      -0.00000000       0.00000000 
Si       1.41934270       4.25802809       4.25802809       14       0.00000000       0.00000000       0.00000000 
8
Lattice="5.719117663395514 0.0 0.0 0.0 5.719117663395514 0.0 0.0 0.0 5.719117663395514" Properties=species:S:1:pos:R:3:Z:I:1:forces:R:3 stress="0.06136841843250227 0.0 0.0 0.0 0.061368418432502285 0.0 0.0 0.0 0.06136841843250227" energy=-1304.62183196 Minim_Constant_Volume=T Minim_Hydrostatic_Strain=F pbc="T T T"
Si       0.00000000      -0.00000000       0.00000000       14      -0.00000000      -0.00000000       0.00000000 
Si       1.42977942       1.42977942       1.42977942       14      -0.00000000       0.00000000       0.00000000 
Si       2.85955883       2.85955883      -0.00000000       14       0.00000000       0.00000000       0.00000000 
Si       4.28933825       4.28933825       1.42977942       14      -0.00000000       0.00000000       0.00000000 
Si       2.85955883      -0.00000000       2.85955883       14       0.00000000       0.00000000       0.00000000 
Si       4.28933825       1.42977942       4.28933825       14      -0.00000000      -0.00000000      -0.00000000 
Si      -0.00000000       2.85955883       2.85955883       14      -0.00000000       0.00000000       0.00000000 
Si       1.42977942       4.28933825       4.28933825       14       0.00000000       0.00000000      -0.00000000 
