8
Lattice="5.461162139139284 0.0 0.0 0.0 5.461162139139284 -4.335252976192888e-28 0.0 -4.335252976192888e-28 5.461162139139284" Properties=species:S:1:pos:R:3:Z:I:1:forces:R:3 stress="-9.905063638536333e-05 1.444538019562185e-28 1.1467225453074987e-56 1.444538019562185e-28 -9.905063638536337e-05 1.444538019562185e-28 1.1467225453074987e-56 1.444538019562185e-28 -9.905063638536333e-05" energy=-1305.41518796 Minim_Constant_Volume=T Minim_Hydrostatic_Strain=F pbc="T T T"
Si       0.00000000      -0.00000000       0.00000000       14      -0.00000000       0.00000000      -0.00000000 
Si       1.36529053       1.36529053       1.36529053       14       0.00000000       0.00000000       0.00000000 
Si       2.73058107       2.73058107       0.00000000       14      -0.00000000       0.00000000      -0.00000000 
Si       4.09587160       4.09587160       1.36529053       14      -0.00000000       0.00000000      -0.00000000 
Si       2.73058107      -0.00000000       2.73058107       14      -0.00000000       0.00000000      -0.00000000 
Si       4.09587160       1.36529053       4.09587160       14       0.00000000       0.00000000       0.00000000 
Si       0.00000000       2.73058107       2.73058107       14       0.00000000       0.00000000      -0.00000000 
Si       1.36529053       4.09587160       4.09587160       14      -0.00000000       0.00000000      -0.00000000 
8
Lattice="5.4152678505209435 0.0 0.0 0.0 5.4152678505209435 -4.2988205564525955e-28 0.0 -4.2988205564525955e-28 5.4152678505209435" Properties=species:S:1:pos:R:3:Z:I:1:forces:R:3 stress="-0.0157736900752855 2.9382532731715894e-28 2.332483622127585e-56 2.9382532731715894e-28 -0.01577369007528551 -2.9382532731715894e-28 2.332483622127585e-56 -2.9382532731715894e-28 -0.0157736900752855" energy=-1305.38371034 Minim_Constant_Volume=T Minim_Hydrostatic_Strain=F pbc="T T T"
Si       0.00000000      -0.00000000       0.00000000       14      -0.00000000       0.00000000       0.00000000 
Si       1.35381696       1.35381696       1.35381696       14       0.00000000       0.00000000       0.00000000 
Si       2.70763393       2.70763393       0.00000000       14       0.00000000       0.00000000      -0.00000000 
Si       4.06145089       4.06145089       1.35381696       14       0.00000000      -0.00000000      -0.00000000 
Si       2.70763393      -0.00000000       2.70763393       14       0.00000000      -0.00000000       0.00000000 
Si       4.06145089       1.35381696       4.06145089       14       0.00000000       0.00000000       0.00000000 
Si       0.00000000       2.70763393       2.70763393       14       0.00000000      -0.00000000       0.00000000 
Si       1.35381696       4.06145089       4.06145089       14       0.00000000      -0.00000000      -0.00000000 
8
Lattice="5.36858218386368 0.0 0.0 0.0 5.36858218386368 -4.261759914383223e-28 0.0 -4.261759914383223e-28 5.36858218386368" Properties=species:S:1:pos:R:3:Z:I:1:forces:R:3 stress="-0.03391232574825918 -7.47394522895984e-29 -5.933067444662515e-57 -7.47394522895984e-29 -0.03391232574825916 3.5763995724514866e-29 -5.933067444662515e-57 3.5763995724514866e-29 -0.03391232574825918" energy=-1305.28290099 Minim_Constant_Volume=T Minim_Hydrostatic_Strain=F pbc="T T T"
Si       0.00000000      -0.00000000       0.00000000       14      -0.00000000       0.00000000      -0.00000000 
Si       1.34214555       1.34214555       1.34214555       14       0.00000000       0.00000000      -0.00000000 
Si       2.68429109       2.68429109       0.00000000       14       0.00000000       0.00000000      -0.00000000 
Si       4.02643664       4.02643664       1.34214555       14      -0.00000000       0.00000000      -0.00000000 
Si       2.68429109      -0.00000000       2.68429109       14      -0.00000000       0.00000000      -0.00000000 
Si       4.02643664       1.34214555       4.02643664       14       0.00000000       0.00000000      -0.00000000 
Si       0.00000000       2.68429109       2.68429109       14       0.00000000       0.00000000      -0.00000000 
Si       1.34214555       4.02643664       4.02643664       14      -0.00000000       0.00000000       0.00000000 
8
Lattice="5.321070115281018 0.0 0.0 0.0 5.321070115281018 -4.224043246853456e-28 0.0 -4.224043246853456e-28 5.321070115281018" Properties=species:S:1:pos:R:3:Z:I:1:forces:R:3 stress="-0.05131181539124291 1.521602296052985e-28 1.2078987428828277e-56 1.521602296052985e-28 -0.051311815391242924 -9.78589356009797e-46 1.2078987428828277e-56 -9.78589356009797e-46 -0.05131181539124291" energy=-1305.11075968 Minim_Constant_Volume=T Minim_Hydrostatic_Strain=F pbc="T T T"
Si       0.00000000      -0.00000000       0.00000000       14      -0.00000000       0.00000000      -0.00000000 
Si       1.33026753       1.33026753       1.33026753       14       0.00000000       0.00000000      -0.00000000 
Si       2.66053506       2.66053506       0.00000000       14       0.00000000      -0.00000000      -0.00000000 
Si       3.99080259       3.99080259       1.33026753       14       0.00000000       0.00000000      -0.00000000 
Si       2.66053506      -0.00000000       2.66053506       14      -0.00000000       0.00000000      -0.00000000 
Si       3.99080259       1.33026753       3.99080259       14       0.00000000       0.00000000       0.00000000 
Si       0.00000000       2.66053506       2.66053506       14       0.00000000      -0.00000000      -0.00000000 
Si       1.33026753       3.99080259       3.99080259       14       0.00000000       0.00000000      -0.00000000 
8
Lattice="5.272694072949152 0.0 0.0 0.0 5.272694072949152 -4.185640728094196e-28 0.0 -4.185640728094196e-28 5.272694072949152" Properties=species:S:1:pos:R:3:Z:I:1:forces:R:3 stress="-0.07251771096286182 1.2397209987080255e-27 9.841319507398555e-56 1.2397209987080255e-27 -0.07251771096286178 3.644741463771184e-45 9.841319507398555e-56 3.644741463771184e-45 -0.07251771096286182" energy=-1304.86016054 Minim_Constant_Volume=T Minim_Hydrostatic_Strain=F pbc="T T T"
Si       0.00000000      -0.00000000       0.00000000       14      -0.00000000       0.00000000      -0.00000000 
Si       1.31817352       1.31817352       1.31817352       14       0.00000000       0.00000000       0.00000000 
Si       2.63634704       2.63634704       0.00000000       14      -0.00000000       0.00000000      -0.00000000 
Si       3.95452055       3.95452055       1.31817352       14       0.00000000       0.00000000       0.00000000 
Si       2.63634704      -0.00000000       2.63634704       14      -0.00000000       0.00000000       0.00000000 
Si       3.95452055       1.31817352       3.95452055       14       0.00000000       0.00000000       0.00000000 
Si       0.00000000       2.63634704       2.63634704       14      -0.00000000      -0.00000000      -0.00000000 
Si       1.31817352       3.95452055       3.95452055       14       0.00000000       0.00000000      -0.00000000 
8
Lattice="5.22341367506775 0.0 0.0 0.0 5.22341367506775 -4.14652030168309e-28 0.0 -4.14652030168309e-28 5.22341367506775" Properties=species:S:1:pos:R:3:Z:I:1:forces:R:3 stress="-0.09820097985830226 1.579029612754729e-27 1.2534864656610502e-55 1.579029612754729e-27 -0.09820097985830226 1.263223690203783e-27 1.2534864656610502e-55 1.263223690203783e-27 -0.0982009798583023" energy=-1304.51405053 Minim_Constant_Volume=T Minim_Hydrostatic_Strain=F pbc="T T T"
Si       0.00000000      -0.00000000       0.00000000       14      -0.00000000       0.00000000       0.00000000 
Si       1.30585342       1.30585342       1.30585342       14       0.00000000       0.00000000      -0.00000000 
Si       2.61170684       2.61170684       0.00000000       14       0.00000000      -0.00000000      -0.00000000 
Si       3.91756026       3.91756026       1.30585342       14       0.00000000      -0.00000000       0.00000000 
Si       2.61170684      -0.00000000       2.61170684       14      -0.00000000       0.00000000       0.00000000 
Si       3.91756026       1.30585342       3.91756026       14       0.00000000       0.00000000      -0.00000000 
Si       0.00000000       2.61170684       2.61170684       14       0.00000000      -0.00000000      -0.00000000 
Si       1.30585342       3.91756026       3.91756026       14       0.00000000      -0.00000000       0.00000000 
8
Lattice="5.506297757375974 0.0 0.0 0.0 5.506297757375974 -4.371083138035283e-28 0.0 -4.371083138035283e-28 5.506297757375974" Properties=species:S:1:pos:R:3:Z:I:1:forces:R:3 stress="0.01339673381714484 -7.104765325433992e-29 -5.640000102083434e-57 -7.104765325433992e-29 0.013396733817144842 7.104765325433992e-29 -5.640000102083434e-57 7.104765325433992e-29 0.013396733817144842" energy=-1305.38744587 Minim_Constant_Volume=T Minim_Hydrostatic_Strain=F pbc="T T T"
Si       0.00000000      -0.00000000       0.00000000       14      -0.00000000       0.00000000      -0.00000000 
Si       1.37657444       1.37657444       1.37657444       14      -0.00000000       0.00000000       0.00000000 
Si       2.75314888       2.75314888       0.00000000       14      -0.00000000      -0.00000000       0.00000000 
Si       4.12972332       4.12972332       1.37657444       14      -0.00000000      -0.00000000      -0.00000000 
Si       2.75314888      -0.00000000       2.75314888       14       0.00000000       0.00000000      -0.00000000 
Si       4.12972332       1.37657444       4.12972332       14       0.00000000       0.00000000      -0.00000000 
Si       0.00000000       2.75314888       2.75314888       14       0.00000000      -0.00000000      -0.00000000 
Si       1.37657444       4.12972332       4.12972332       14      -0.00000000      -0.00000000      -0.00000000 
8
Lattice="5.550705302196381 0.0 0.0 0.0 5.550705302196381 -4.406335330873202e-28 0.0 -4.406335330873202e-28 5.550705302196381" Properties=species:S:1:pos:R:3:Z:I:1:forces:R:3 stress="0.025090823852504194 2.7966155816448534e-28 2.2200468901485653e-56 2.7966155816448534e-28 0.02509082385250419 2.564474639809099e-28 2.2200468901485653e-56 2.564474639809099e-28 0.0250908238525042" energy=-1305.30853224 Minim_Constant_Volume=T Minim_Hydrostatic_Strain=F pbc="T T T"
Si       0.00000000      -0.00000000       0.00000000       14      -0.00000000       0.00000000      -0.00000000 
Si       1.38767633       1.38767633       1.38767633       14       0.00000000       0.00000000       0.00000000 
Si       2.77535265       2.77535265       0.00000000       14       0.00000000      -0.00000000      -0.00000000 
Si       4.16302898       4.16302898       1.38767633       14       0.00000000       0.00000000       0.00000000 
Si       2.77535265      -0.00000000       2.77535265       14       0.00000000       0.00000000      -0.00000000 
Si       4.16302898       1.38767633       4.16302898       14       0.00000000      -0.00000000       0.00000000 
Si       0.00000000       2.77535265       2.77535265       14      -0.00000000      -0.00000000      -0.00000000 
Si       1.38767633       4.16302898       4.16302898       14      -0.00000000       0.00000000       0.00000000 
8
Lattice="5.594413442745158 0.0 0.0 0.0 5.594413442745158 -4.441032313231578e-28 0.0 -4.441032313231578e-28 5.594413442745158" Properties=species:S:1:pos:R:3:Z:I:1:forces:R:3 stress="0.035299088893217236 1.032407768942785e-28 8.195597821344445e-57 1.032407768942785e-28 0.03529908889321724 -6.882718459618567e-29 8.195597821344445e-57 -6.882718459618567e-29 0.035299088893217236" energy=-1305.18512653 Minim_Constant_Volume=T Minim_Hydrostatic_Strain=F pbc="T T T"
Si       0.00000000      -0.00000000       0.00000000       14      -0.00000000      -0.00000000       0.00000000 
Si       1.39860336       1.39860336       1.39860336       14       0.00000000       0.00000000       0.00000000 
Si       2.79720672       2.79720672       0.00000000       14       0.00000000      -0.00000000       0.00000000 
Si       4.19581008       4.19581008       1.39860336       14      -0.00000000       0.00000000       0.00000000 
Si       2.79720672      -0.00000000       2.79720672       14       0.00000000      -0.00000000       0.00000000 
Si       4.19581008       1.39860336       4.19581008       14      -0.00000000       0.00000000       0.00000000 
Si       0.00000000       2.79720672       2.79720672       14      -0.00000000      -0.00000000       0.00000000 
Si       1.39860336       4.19581008       4.19581008       14       0.00000000       0.00000000       0.00000000 
8
Lattice="5.637449083516642 0.0 0.0 0.0 5.637449083516642 -4.475195442796954e-28 0.0 -4.475195442796954e-28 5.637449083516642" Properties=species:S:1:pos:R:3:Z:I:1:forces:R:3 stress="0.04428848663158865 -3.389017894579008e-29 -2.690315639696461e-57 -3.389017894579008e-29 0.044288486631588624 -6.778035789158017e-29 -2.690315639696461e-57 -6.778035789158017e-29 0.04428848663158865" energy=-1305.02271646 Minim_Constant_Volume=T Minim_Hydrostatic_Strain=F pbc="T T T"
Si       0.00000000      -0.00000000       0.00000000       14       0.00000000      -0.00000000       0.00000000 
Si       1.40936227       1.40936227       1.40936227       14       0.00000000      -0.00000000       0.00000000 
Si       2.81872454       2.81872454       0.00000000       14      -0.00000000       0.00000000       0.00000000 
Si       4.22808681       4.22808681       1.40936227       14      -0.00000000       0.00000000       0.00000000 
Si       2.81872454      -0.00000000       2.81872454       14       0.00000000       0.00000000      -0.00000000 
Si       4.22808681       1.40936227       4.22808681       14       0.00000000      -0.00000000      -0.00000000 
Si       0.00000000       2.81872454       2.81872454       14       0.00000000      -0.00000000      -0.00000000 
Si       1.40936227       4.22808681       4.22808681       14      -0.00000000       0.00000000      -0.00000000 
8
Lattice="5.679837510343578 0.0 0.0 0.0 5.679837510343578 -4.5088447923082235e-28 0.0 -4.5088447923082235e-28 5.679837510343578" Properties=species:S:1:pos:R:3:Z:I:1:forces:R:3 stress="0.052268890914561994 8.346556017429824e-30 6.625775044508422e-58 8.346556017429824e-30 0.05226889091456201 -1.6693112034859646e-29 6.625775044508422e-58 -1.6693112034859646e-29 0.052268890914561994" energy=-1304.82581859 Minim_Constant_Volume=T Minim_Hydrostatic_Strain=F pbc="T T T"
Si       0.00000000      -0.00000000       0.00000000       14      -0.00000000       0.00000000       0.00000000 
Si       1.41995938       1.41995938       1.41995938       14      -0.00000000       0.00000000       0.00000000 
Si       2.83991876       2.83991876       0.00000000       14      -0.00000000      -0.00000000      -0.00000000 
Si       4.25987813       4.25987813       1.41995938       14      -0.00000000       0.00000000      -0.00000000 
Si       2.83991876      -0.00000000       2.83991876       14       0.00000000       0.00000000       0.00000000 
Si       4.25987813       1.41995938       4.25987813       14       0.00000000      -0.00000000       0.00000000 
Si       0.00000000       2.83991876       2.83991876       14       0.00000000      -0.00000000       0.00000000 
Si       1.41995938       4.25987813       4.25987813       14       0.00000000       0.00000000       0.00000000 
8
Lattice="5.721602521352754 0.0 0.0 0.0 5.721602521352754 -4.541999253513581e-28 0.0 -4.541999253513581e-28 5.721602521352754" Properties=species:S:1:pos:R:3:Z:I:1:forces:R:3 stress="0.0593975234734853 6.580119096758964e-29 5.223518396108986e-57 6.580119096758964e-29 0.059397523473485286 -1.102561454169446e-45 5.223518396108986e-57 -1.102561454169446e-45 0.0593975234734853" energy=-1304.59820518 Minim_Constant_Volume=T Minim_Hydrostatic_Strain=F pbc="T T T"
Si       0.00000000      -0.00000000       0.00000000       14      -0.00000000      -0.00000000       0.00000000 
Si       1.43040063       1.43040063       1.43040063       14      -0.00000000      -0.00000000       0.00000000 
Si       2.86080126       2.86080126       0.00000000       14      -0.00000000       0.00000000      -0.00000000 
Si       4.29120189       4.29120189       1.43040063       14      -0.00000000       0.00000000       0.00000000 
Si       2.86080126      -0.00000000       2.86080126       14       0.00000000      -0.00000000      -0.00000000 
Si       4.29120189       1.43040063       4.29120189       14       0.00000000      -0.00000000       0.00000000 
Si       0.00000000       2.86080126       2.86080126       14      -0.00000000       0.00000000      -0.00000000 
Si       1.43040063       4.29120189       4.29120189       14       0.00000000       0.00000000       0.00000000 
