2
Lattice="2.867838517577639 -1.1891293231625066e-16 -1.2805270160020126e-26 -1.4339192587888188 2.483621010173741 -3.862316556965999e-27 -2.4815526060544016e-26 -2.412896351161343e-26 4.305215586334945" Properties=species:S:1:pos:R:3:Z:I:1:forces:R:3 stress="-0.0004063514496824781 1.3314575999133869e-20 -1.3553254802985862e-29 1.3314575999133869e-20 -0.0004063514496824777 -6.478105062080622e-27 -1.3553254802985862e-29 -6.478105062080622e-27 -0.00037191657909829977" energy=-325.494591891 Minim_Constant_Volume=T Minim_Hydrostatic_Strain=F pbc="T T T"
Si       0.00000000      -0.00000000       0.00000000       14      -0.00000000       0.00000000       0.00000000 
Si       0.00000000       1.65574734       2.15260779       14       0.00000000      -0.00000000       0.00000000 
2
Lattice="2.8718808733673744 -2.449150071168328e-16 -2.7842459991566044e-27 -1.4359404366836865 2.4871217929787863 1.0393025703294634e-26 -1.03457234461405e-26 8.734522643108019e-27 4.184538792772623" Properties=species:S:1:pos:R:3:Z:I:1:forces:R:3 stress="-0.03356893602436241 -5.494990101262106e-18 -6.492139121528703e-27 -5.494990101262106e-18 -0.03356893602436244 -1.1592590882743097e-26 -6.492139121528703e-27 -1.1592590882743097e-26 -0.03360181969435859" energy=-325.482274369 Minim_Constant_Volume=T Minim_Hydrostatic_Strain=F pbc="T T T"
Si      -0.00000000      -0.00000000       0.00000000       14       0.00000000       0.00000000       0.00000000 
Si       0.00000000       1.65808120       2.09226940       14      -0.00000000      -0.00000000      -0.00000000 
2
Lattice="2.8721314851727273 -3.7875184383438663e-16 4.9632723970981755e-26 -1.4360657425863632 2.4873388291687095 1.9146177151648524e-25 6.592425993149887e-26 3.5786546294056996e-25 4.076809445217852" Properties=species:S:1:pos:R:3:Z:I:1:forces:R:3 stress="-0.0637610883129451 1.4799397242278023e-17 -4.7326081990079234e-27 1.4799397242278023e-17 -0.06376108831294511 -2.2270432660707404e-26 -4.7326081990079234e-27 -2.2270432660707404e-26 -0.06383916662887044" energy=-325.444415744 Minim_Constant_Volume=T Minim_Hydrostatic_Strain=F pbc="T T T"
Si      -0.00000000       0.00000000       0.00000000       14       0.00000000      -0.00000000       0.00000000 
Si      -0.00000000       1.65822589       2.03840472       14      -0.00000000       0.00000000      -0.00000000 
2
Lattice="3.0754980048941643 -1.7415082202206575e-15 3.2079966542877585e-25 -1.5377490024470828 2.6634594015267075 4.284838941351341e-25 4.6732784162079825e-25 1.0534460762185115e-24 3.3921577267799123" Properties=species:S:1:pos:R:3:Z:I:1:forces:R:3 stress="-0.03706249522541216 -1.825247324104531e-17 -6.304678149363878e-26 -1.825247324104531e-17 -0.0370624952254121 -9.65608569095994e-26 -6.304678149363878e-26 -9.65608569095994e-26 -0.036053649567849705" energy=-325.415702386 Minim_Constant_Volume=T Minim_Hydrostatic_Strain=F pbc="T T T"
Si      -0.00000000       0.00000000       0.00000000       14      -0.00000000       0.00000000       0.00000000 
Si      -0.00000000       1.77563960       1.69607886       14       0.00000000      -0.00000000      -0.00000000 
2
Lattice="3.0650267499076786 -1.6632078975601089e-15 3.1024169130597225e-25 -1.53251337495384 2.6543910286989063 4.282683975776383e-25 4.540912303223975e-25 1.0428607174118195e-24 3.39216193235813" Properties=species:S:1:pos:R:3:Z:I:1:forces:R:3 stress="-0.04586515341743456 -2.764045879772468e-17 3.2807869093903366e-27 -2.764045879772468e-17 -0.045865153417434475 -2.809344049138922e-26 3.2807869093903366e-27 -2.809344049138922e-26 -0.04582719229176045" energy=-325.407884201 Minim_Constant_Volume=T Minim_Hydrostatic_Strain=F pbc="T T T"
Si      -0.00000000       0.00000000       0.00000000       14      -0.00000000       0.00000000       0.00000000 
Si      -0.00000000       1.76959402       1.69608097       14       0.00000000      -0.00000000      -0.00000000 
2
Lattice="3.0235775214581704 -1.3766735791456468e-15 2.9793972011197866e-25 -1.5117887607290856 2.6184949438943668 4.3350328210545545e-25 4.34674888624823e-25 1.0283241363594193e-24 3.3888084087649943" Properties=species:S:1:pos:R:3:Z:I:1:forces:R:3 stress="-0.09781148595119128 -5.19539895914136e-17 6.063647895180943e-27 -5.19539895914136e-17 -0.09781148595119116 4.909606838099912e-27 6.063647895180943e-27 4.909606838099912e-27 -0.09769019949216683" energy=-325.354596652 Minim_Constant_Volume=T Minim_Hydrostatic_Strain=F pbc="T T T"
Si      -0.00000000       0.00000000       0.00000000       14       0.00000000      -0.00000000       0.00000000 
Si      -0.00000000       1.74566330       1.69440420       14      -0.00000000       0.00000000      -0.00000000 
2
Lattice="2.864053396073561 1.762117411521348e-17 -1.2036310276429218e-26 -1.4320266980367795 2.4803429987947987 -2.7372247654827046e-26 -2.3101028873418553e-26 -6.369561304949833e-26 4.42332580151887" Properties=species:S:1:pos:R:3:Z:I:1:forces:R:3 stress="0.03415579163958847 9.996604681900693e-18 -2.353829617614031e-27 9.996604681900693e-18 0.03415579163958845 -6.772446243226232e-27 -2.353829617614031e-27 -6.772446243226232e-27 0.03425720442468858" energy=-325.481800367 Minim_Constant_Volume=T Minim_Hydrostatic_Strain=F pbc="T T T"
Si      -0.00000000      -0.00000000       0.00000000       14       0.00000000       0.00000000      -0.00000000 
Si       0.00000000       1.65356200       2.21166290       14      -0.00000000      -0.00000000       0.00000000 
2
Lattice="2.871508574925898 3.917354408591121e-16 -2.1024937926926175e-26 -1.4357542874629479 2.48679937307068 -4.5881103928017177e-26 -3.6685422893126375e-26 -1.0373729177388502e-25 4.508519773701194" Properties=species:S:1:pos:R:3:Z:I:1:forces:R:3 stress="0.07037255912033122 -1.4098883398738664e-17 2.0093297776602744e-27 -1.4098883398738664e-17 0.07037255912033114 2.8012577227966154e-27 2.0093297776602744e-27 2.8012577227966154e-27 0.07054301515584042" energy=-325.441349725 Minim_Constant_Volume=T Minim_Hydrostatic_Strain=F pbc="T T T"
Si      -0.00000000      -0.00000000       0.00000000       14       0.00000000      -0.00000000       0.00000000 
Si       0.00000000       1.65786625       2.25425989       14      -0.00000000       0.00000000      -0.00000000 
2
Lattice="2.894207277580334 3.9483203140002485e-16 -2.119113586848851e-26 -1.447103638790166 2.506457026202371 -4.624378490505247e-26 -3.697541384536471e-26 -1.0455731437827954e-25 4.544158723432532" Properties=species:S:1:pos:R:3:Z:I:1:forces:R:3 stress="0.10263121132118207 5.8038366116728336e-18 1.947645212593958e-27 5.8038366116728336e-18 0.10263121132118196 5.7297051271123826e-27 1.947645212593958e-27 5.7297051271123826e-27 0.10177192221810155" energy=-325.37454445 Minim_Constant_Volume=T Minim_Hydrostatic_Strain=F pbc="T T T"
Si      -0.00000000      -0.00000000       0.00000000       14       0.00000000      -0.00000000       0.00000000 
Si       0.00000000       1.67097135       2.27207936       14      -0.00000000       0.00000000      -0.00000000 
2
Lattice="2.869252225957633 2.748471018876989e-15 -8.061060964669018e-26 -1.4346261129788134 2.4848453175443628 -2.955619790075746e-25 -1.2860875776162203e-25 -6.053728925619611e-25 4.727391276059612" Properties=species:S:1:pos:R:3:Z:I:1:forces:R:3 stress="0.12098625397459435 -2.6931392478480867e-16 -7.818172332357483e-27 -2.6931392478480867e-16 0.12098625397459385 -7.113779189939774e-27 -7.818172332357483e-27 -7.113779189939774e-27 0.12077836581434714" energy=-325.293152139 Minim_Constant_Volume=T Minim_Hydrostatic_Strain=F pbc="T T T"
Si       0.00000000      -0.00000000      -0.00000000       14      -0.00000000      -0.00000000       0.00000000 
Si       0.00000000       1.65656355       2.36369564       14       0.00000000       0.00000000      -0.00000000 
2
Lattice="2.8874970067361243 5.187881938421913e-15 -2.2821042562692e-26 -1.443748503368057 2.5006457611850164 -2.730851628262373e-25 -3.2801213150728265e-26 -5.046998446213881e-25 4.777614862849099" Properties=species:S:1:pos:R:3:Z:I:1:forces:R:3 stress="0.14553275428909354 -5.250135886678017e-16 -3.684966918797708e-26 -5.250135886678017e-16 0.1455327542890925 -8.083462423587212e-26 -3.684966918797708e-26 -8.083462423587212e-26 0.14498510526975514" energy=-325.187485973 Minim_Constant_Volume=T Minim_Hydrostatic_Strain=F pbc="T T T"
Si       0.00000000      -0.00000000       0.00000000       14      -0.00000000       0.00000000      -0.00000000 
Si       0.00000000       1.66709717       2.38880743       14       0.00000000      -0.00000000       0.00000000 
2
Lattice="2.908735148607152 5.22603989057262e-15 -2.2988896083738267e-26 -1.4543675743035709 2.5190385315745045 -2.7509376107497873e-25 -3.3042472905045526e-26 -5.084120170937228e-25 4.812755215211581" Properties=species:S:1:pos:R:3:Z:I:1:forces:R:3 stress="0.1667772172469817 -6.201946482700132e-16 -4.141832553529114e-26 -6.201946482700132e-16 0.16677721724698064 -9.375360875709598e-26 -4.141832553529114e-26 -9.375360875709598e-26 0.16548779793719362" energy=-325.067787285 Minim_Constant_Volume=T Minim_Hydrostatic_Strain=F pbc="T T T"
Si       0.00000000      -0.00000000       0.00000000       14      -0.00000000       0.00000000      -0.00000000 
Si       0.00000000       1.67935902       2.40637761       14       0.00000000      -0.00000000       0.00000000 
