2
Lattice="3.330732710622417 0.0 0.0 -1.665366355311208 2.884499140614817 0.0 0.0 0.0 3.330732710622417" Properties=species:S:1:pos:R:3:Z:I:1:forces:R:3 energy=-325.386205842 stress="-0.00662849325274298 -3.793044844029932e-19 0.0 -3.793044844029932e-19 -0.006628493252742977 0.0 0.0 0.0 -0.007203987531199555" pbc="T T T"
Si       0.00000000       0.00000000       0.00000000       14       0.00000000      -0.00000000       0.00000000 
Si       0.00000000       1.92299943       1.66536636       14      -0.00000000       0.00000000       0.00000000 
2
Lattice="3.34682515168313 9.20863132325483e-19 0.0 -1.6734125758415643 2.8984356033822984 0.0 0.0 0.0 3.348222318038094" Properties=species:S:1:pos:R:3:Z:I:1:forces:R:3 energy=-325.387749136 stress="-0.00145302193230494 -1.3653912113705094e-19 3.606928717657952e-46 -1.3653912113705094e-19 -0.0014530219323049397 1.7341282378067065e-30 3.606928717657952e-46 1.7341282378067065e-30 0.0036859323914009185" pbc="T T T"
Si       0.00000000      -0.00000000       0.00000000       14       0.00000000       0.00000000      -0.00000000 
Si       0.00000000       1.93229040       1.67411116       14       0.00000000       0.00000000       0.00000000 
2
Lattice="3.3491074217212207 1.1145919428252932e-18 -4.291227035769202e-46 -1.6745537108606097 2.900412107213581 -1.7890836832701143e-30 -4.295118099744519e-46 -2.0649938395006507e-30 3.3444322810087885" Properties=species:S:1:pos:R:3:Z:I:1:forces:R:3 energy=-325.387931567 stress="-0.001479163808424773 1.409617913058552e-19 -1.9207340879162193e-33 1.409617913058552e-19 -0.0014791638084247715 -4.385183251117477e-31 -1.9207340879162193e-33 -4.385183251117477e-31 0.0027028846754151245" pbc="T T T"
Si       0.00000000      -0.00000000      -0.00000000       14       0.00000000       0.00000000      -0.00000000 
Si       0.00000000       1.93360807       1.67221614       14      -0.00000000      -0.00000000       0.00000000 
2
Lattice="3.3556465197420993 8.945302982942193e-19 5.228872942908114e-33 -1.6778232598710487 2.906075132217498 -1.3642666435791024e-30 5.2361823200225324e-33 -1.56244882644345e-30 3.3376826728451086" Properties=species:S:1:pos:R:3:Z:I:1:forces:R:3 energy=-325.388233394 stress="-0.0010918642542698503 2.337542597108158e-19 -8.243127352987626e-34 2.337542597108158e-19 -0.00109186425426985 8.653461024574187e-31 -8.243127352987626e-34 8.653461024574187e-31 0.0015351324427717223" pbc="T T T"
Si       0.00000000      -0.00000000      -0.00000000       14       0.00000000       0.00000000      -0.00000000 
Si       0.00000000       1.93738342       1.66884134       14      -0.00000000      -0.00000000       0.00000000 
2
Lattice="3.3692370276059975 4.94800036539581e-20 1.304914323327967e-32 -1.684618513802998 2.917844857277966 -5.046772590637506e-30 1.3064175041474843e-32 -5.814668221472069e-30 3.325506087316035" Properties=species:S:1:pos:R:3:Z:I:1:forces:R:3 energy=-325.388483303 stress="-0.0002491587445540048 -7.97119431911516e-21 1.5022791927204883e-30 -7.97119431911516e-21 -0.0002491587445540046 8.67301565124602e-31 1.5022791927204883e-30 8.67301565124602e-31 -0.00014192805498562566" pbc="T T T"
Si       0.00000000      -0.00000000      -0.00000000       14       0.00000000      -0.00000000       0.00000000 
Si       0.00000000       1.94522990       1.66275304       14      -0.00000000       0.00000000      -0.00000000 
