2
Lattice="3.3692370276059975 4.94800036539581e-20 1.304914323327967e-32 -1.684618513802998 2.917844857277966 -5.046772590637506e-30 1.3064175041474843e-32 -5.814668221472069e-30 3.325506087316035" Properties=species:S:1:pos:R:3:Z:I:1:forces:R:3 stress="-0.00024915708464979175 4.8432013627785274e-20 2.3070717915865028e-27 4.8432013627785274e-20 -0.00024915708464979153 -9.323918388140232e-27 2.3070717915865028e-27 -9.323918388140232e-27 -0.0001419255903132237" energy=-325.3884833 Minim_Constant_Volume=T Minim_Hydrostatic_Strain=F pbc="T T T"
Si       0.00000000      -0.00000000      -0.00000000       14       0.00000000      -0.00000000      -0.00000000 
Si       0.00000000       1.94522990       1.66275304       14      -0.00000000       0.00000000       0.00000000 
2
Lattice="3.322682716080062 -7.752180443905536e-19 2.173230277642083e-27 -1.6613413580400302 2.877527640840811 -4.352072022199524e-27 2.1450228541808506e-27 -3.721660041579807e-27 3.3335659572400718" Properties=species:S:1:pos:R:3:Z:I:1:forces:R:3 stress="-0.007912939373224659 -2.8645280577779544e-18 -6.1973431037502324e-27 -2.8645280577779544e-18 -0.007912939373224662 -1.4344709805067496e-26 -6.1973431037502324e-27 -1.4344709805067496e-26 -0.007944723963019118" energy=-325.385288512 Minim_Constant_Volume=T Minim_Hydrostatic_Strain=F pbc="T T T"
Si       0.00000000      -0.00000000      -0.00000000       14       0.00000000      -0.00000000       0.00000000 
Si      -0.00000000       1.91835176       1.66678298       14      -0.00000000       0.00000000      -0.00000000 
2
Lattice="3.2798947381973416 4.500744760735353e-17 1.7973349795481662e-27 -1.6399473690986701 2.8404721650178084 2.4890297918407793e-26 1.7403172028173002e-27 2.998523558029587e-26 3.3334994724450624" Properties=species:S:1:pos:R:3:Z:I:1:forces:R:3 stress="-0.017912737277013074 -2.336700994008981e-18 -2.5382450107407787e-26 -2.336700994008981e-18 -0.01791273727701306 -1.0940351184914714e-25 -2.5382450107407787e-26 -1.0940351184914714e-25 -0.017994697929692938" energy=-325.375028449 Minim_Constant_Volume=T Minim_Hydrostatic_Strain=F pbc="T T T"
Si       0.00000000      -0.00000000      -0.00000000       14       0.00000000       0.00000000       0.00000000 
Si       0.00000000       1.89364811       1.66674974       14       0.00000000       0.00000000       0.00000000 
2
Lattice="3.2391568462848763 8.489939093212046e-17 3.2383867239722494e-27 -1.6195784231424375 2.8051921157249886 2.593540205068637e-26 3.1863258802214908e-27 3.1734947759336203e-26 3.3279869348176856" Properties=species:S:1:pos:R:3:Z:I:1:forces:R:3 stress="-0.027987845705655493 5.933878792081111e-18 1.2547225575339489e-26 5.933878792081111e-18 -0.027987845705655476 2.1836309933783587e-26 1.2547225575339489e-26 2.1836309933783587e-26 -0.027893438554885627" energy=-325.356277903 Minim_Constant_Volume=T Minim_Hydrostatic_Strain=F pbc="T T T"
Si       0.00000000      -0.00000000      -0.00000000       14       0.00000000      -0.00000000       0.00000000 
Si       0.00000000       1.87012808       1.66399347       14      -0.00000000       0.00000000      -0.00000000 
2
Lattice="3.196546535016402 2.3572636840074786e-17 5.290030187704886e-27 -1.5982732675082003 2.768290503703328 4.479704201849605e-25 5.2553984067499054e-27 5.332531042034039e-25 3.3249057292768653" Properties=species:S:1:pos:R:3:Z:I:1:forces:R:3 stress="-0.03809884592981923 -1.8916463710132076e-17 -1.3954199494356176e-26 -1.8916463710132076e-17 -0.0380988459298192 -1.33635343554571e-26 -1.3954199494356176e-26 -1.33635343554571e-26 -0.03800068533108508" energy=-325.328906648 Minim_Constant_Volume=T Minim_Hydrostatic_Strain=F pbc="T T T"
Si       0.00000000      -0.00000000      -0.00000000       14       0.00000000      -0.00000000      -0.00000000 
Si       0.00000000       1.84552700       1.66245286       14      -0.00000000       0.00000000       0.00000000 
2
Lattice="3.144961418220312 3.427452588927317e-18 1.9077002912817377e-25 -1.5724807091101554 2.7236164821007263 5.580150803583509e-25 1.9807505755742974e-25 7.658857731108896e-25 3.3391584762338864" Properties=species:S:1:pos:R:3:Z:I:1:forces:R:3 stress="-0.04103818927077834 -4.063375239700105e-18 5.804649801360506e-27 -4.063375239700105e-18 -0.04103818927077834 -1.609639062111831e-26 5.804649801360506e-27 -1.609639062111831e-26 -0.0410336618568399" energy=-325.296294715 Minim_Constant_Volume=T Minim_Hydrostatic_Strain=F pbc="T T T"
Si       0.00000000      -0.00000000      -0.00000000       14       0.00000000      -0.00000000      -0.00000000 
Si       0.00000000       1.81574432       1.66957924       14      -0.00000000       0.00000000       0.00000000 
2
Lattice="3.421541984612487 1.0973897682738538e-17 2.5521970566829344e-31 -1.7107709923062429 2.9631422787894386 -2.167383936190232e-26 2.5237485217614034e-31 -2.4702010227302735e-26 3.3047082587942462" Properties=species:S:1:pos:R:3:Z:I:1:forces:R:3 stress="0.004176608725088574 1.4889448845942212e-18 -6.1295242709287425e-27 1.4889448845942212e-18 0.004176608725088572 -1.763265434360893e-26 -6.1295242709287425e-27 -1.763265434360893e-26 0.004174893865758921" energy=-325.38678503 Minim_Constant_Volume=T Minim_Hydrostatic_Strain=F pbc="T T T"
Si       0.00000000      -0.00000000      -0.00000000       14       0.00000000       0.00000000      -0.00000000 
Si       0.00000000       1.97542819       1.65235413       14      -0.00000000      -0.00000000       0.00000000 
2
Lattice="3.4783704001207787 2.2201668183985593e-17 -1.4463249089710314e-26 -1.7391852000603887 3.0123571302764374 -4.5800551149459415e-26 -1.396936732807923e-26 -6.029979526645191e-26 3.2754091082770778" Properties=species:S:1:pos:R:3:Z:I:1:forces:R:3 stress="0.0072006954267009975 2.221762615479744e-18 -6.101469464600107e-27 2.221762615479744e-18 0.007200695426700994 3.4289019582028876e-27 -6.101469464600107e-27 3.4289019582028876e-27 0.007055742901806081" energy=-325.38206457 Minim_Constant_Volume=T Minim_Hydrostatic_Strain=F pbc="T T T"
Si       0.00000000       0.00000000      -0.00000000       14      -0.00000000       0.00000000      -0.00000000 
Si       0.00000000       2.00823809       1.63770455       14       0.00000000      -0.00000000       0.00000000 
2
Lattice="3.5384289119741825 2.830291878866306e-17 -1.2125497293701534e-26 -1.7692144559870906 3.0643693272549744 -5.780998130297299e-26 -1.2154863201980091e-26 -7.374478320607988e-26 3.240382630753407" Properties=species:S:1:pos:R:3:Z:I:1:forces:R:3 stress="0.010082576077183391 -1.8011676692838412e-18 -1.2288248837095588e-28 -1.8011676692838412e-18 0.010082576077183375 -1.053703890070823e-26 -1.2288248837095588e-28 -1.053703890070823e-26 0.010075526055762929" energy=-325.374997745 Minim_Constant_Volume=T Minim_Hydrostatic_Strain=F pbc="T T T"
Si       0.00000000       0.00000000      -0.00000000       14      -0.00000000       0.00000000      -0.00000000 
Si       0.00000000       2.04291288       1.62019132       14       0.00000000      -0.00000000       0.00000000 
2
Lattice="3.6020814932786998 1.3638462631942145e-16 -7.430319085842046e-27 -1.8010407466393492 3.1194940796811412 -1.298407538742638e-25 -8.21417462202566e-27 -1.4961078706620165e-25 3.1994243856271476" Properties=species:S:1:pos:R:3:Z:I:1:forces:R:3 stress="0.014093185484197503 -7.475473897099714e-19 -1.2495629262216813e-28 -7.475473897099714e-19 0.014093185484197504 -2.308641099610604e-27 -1.2495629262216813e-28 -2.308641099610604e-27 0.01408447474317805" energy=-325.365323797 Minim_Constant_Volume=T Minim_Hydrostatic_Strain=F pbc="T T T"
Si       0.00000000      -0.00000000      -0.00000000       14       0.00000000      -0.00000000       0.00000000 
Si       0.00000000       2.07966272       1.59971219       14      -0.00000000       0.00000000      -0.00000000 
2
Lattice="3.6624923992711094 1.6974014684422224e-16 -1.432743392438615e-26 -1.831246199635554 3.1718114589362023 -1.465895092899149e-25 -1.4548495581951598e-26 -1.7429666386125509e-25 3.165278184972759" Properties=species:S:1:pos:R:3:Z:I:1:forces:R:3 stress="0.02117875154233698 4.541890938104974e-19 -2.2300750242842983e-27 4.541890938104974e-19 0.02117875154233697 -1.3337906933654906e-27 -2.2300750242842983e-27 -1.3337906933654906e-27 0.021131310299173756" energy=-325.351070553 Minim_Constant_Volume=T Minim_Hydrostatic_Strain=F pbc="T T T"
Si       0.00000000      -0.00000000      -0.00000000       14      -0.00000000      -0.00000000       0.00000000 
Si       0.00000000       2.11454097       1.58263909       14       0.00000000       0.00000000      -0.00000000 
2
Lattice="3.713590347964419 1.6573848572701014e-18 -4.110147655408787e-27 -1.856795173982209 3.216063580585884 -1.411472891058971e-25 -5.9905241944004304e-27 -1.670574550889685e-25 3.147574393961944" Properties=species:S:1:pos:R:3:Z:I:1:forces:R:3 stress="0.03078284168647025 3.6906355855230576e-18 -1.1457556518130072e-27 3.6906355855230576e-18 0.03078284168647018 -5.734580978000341e-28 -1.1457556518130072e-27 -5.734580978000341e-28 0.030711632658642133" energy=-325.329810946 Minim_Constant_Volume=T Minim_Hydrostatic_Strain=F pbc="T T T"
Si       0.00000000      -0.00000000      -0.00000000       14      -0.00000000       0.00000000      -0.00000000 
Si       0.00000000       2.14404239       1.57378720       14       0.00000000      -0.00000000       0.00000000 
