2
Lattice="2.6639637577943573 4.199745433504405e-17 -7.291821923934132e-34 -1.331981878897178 2.307060289010969 -2.87147327600753e-33 -1.2979957112754258e-33 -7.009366078063161e-33 4.574834727486106" Properties=species:S:1:pos:R:3:Z:I:1:forces:R:3 stress="-3.8981230798414057e-05 -1.179334307180765e-20 -1.702392088845269e-34 -1.179334307180765e-20 -3.89812307984141e-05 -1.0133302634980656e-34 -1.702392088845269e-34 -1.0133302634980656e-34 0.0013886401621992356" energy=-325.290087213 Minim_Constant_Volume=T Minim_Hydrostatic_Strain=F pbc="T T T"
Si       0.00000000      -0.00000000      -0.00000000       14       0.00000000       0.00000000       0.00000000 
Si       0.00000000       1.53804019       2.28741736       14       0.00000000       0.00000000       0.00000000 
2
Lattice="2.641576449295899 4.164451786449424e-17 -7.230543212296517e-34 -1.3207882246479488 2.2876723111289445 -2.8473421075984355e-33 -1.287087668576655e-33 -6.950461057186243e-33 4.536388920528698" Properties=species:S:1:pos:R:3:Z:I:1:forces:R:3 stress="-0.03905645348343604 -2.3284260939541932e-17 -1.676007117188758e-33 -2.3284260939541932e-17 -0.039056453483436074 -7.266777526197847e-33 -1.676007117188758e-33 -7.266777526197847e-33 -0.041235741495662226" energy=-325.276141943 Minim_Constant_Volume=T Minim_Hydrostatic_Strain=F pbc="T T T"
Si       0.00000000      -0.00000000      -0.00000000       14       0.00000000      -0.00000000       0.00000000 
Si       0.00000000       1.52511487       2.26819446       14      -0.00000000       0.00000000      -0.00000000 
2
Lattice="2.607276998987182 -1.5812219042137342e-17 -7.086823014511057e-34 -1.3036384994935903 2.2579681158257534 -3.224564067663232e-33 -1.2455633193129767e-33 -7.59331204172058e-33 4.536867822675854" Properties=species:S:1:pos:R:3:Z:I:1:forces:R:3 stress="-0.06842582582642634 2.483511309676237e-18 4.508848224096577e-34 2.483511309676237e-18 -0.06842582582642634 -1.631092318926302e-35 4.508848224096577e-34 -1.631092318926302e-35 -0.06795079993129614" energy=-325.237123937 Minim_Constant_Volume=T Minim_Hydrostatic_Strain=F pbc="T T T"
Si       0.00000000      -0.00000000      -0.00000000       14       0.00000000       0.00000000       0.00000000 
Si       0.00000000       1.50531208       2.26843391       14       0.00000000      -0.00000000      -0.00000000 
2
Lattice="2.567516323863293 4.967492515719427e-18 2.347573139163397e-33 -1.2837581619316458 2.223534361096845 -5.4391519587296335e-33 4.0964985919065356e-33 -8.827983518558443e-33 4.555047680384128" Properties=species:S:1:pos:R:3:Z:I:1:forces:R:3 stress="-0.08017922920846379 5.548934664379347e-17 -1.7730592983783223e-33 5.548934664379347e-17 -0.08017922920846378 8.757270029245823e-33 -1.7730592983783223e-33 8.757270029245823e-33 -0.079988543619962" energy=-325.184089233 Minim_Constant_Volume=T Minim_Hydrostatic_Strain=F pbc="T T T"
Si       0.00000000      -0.00000000      -0.00000000       14      -0.00000000      -0.00000000      -0.00000000 
Si       0.00000000       1.48235624       2.27752384       14       0.00000000       0.00000000       0.00000000 
2
Lattice="2.533452289685901 5.845319500498534e-17 -2.0730466943282913e-33 -1.2667261448429499 2.1940340421438425 -1.2791447270659896e-32 -3.797938468217834e-33 -2.830582611300089e-32 4.552244203568744" Properties=species:S:1:pos:R:3:Z:I:1:forces:R:3 stress="-0.09425021645630922 5.0455032102772227e-17 8.668644395660932e-34 5.0455032102772227e-17 -0.09425021645630925 3.417526113473328e-33 8.668644395660932e-34 3.417526113473328e-33 -0.09423269986246191" energy=-325.123646289 Minim_Constant_Volume=T Minim_Hydrostatic_Strain=F pbc="T T T"
Si       0.00000000      -0.00000000      -0.00000000       14      -0.00000000       0.00000000       0.00000000 
Si       0.00000000       1.46268936       2.27612210       14       0.00000000      -0.00000000      -0.00000000 
2
Lattice="2.5082523737240177 -3.743830026243498e-17 -3.996421877094987e-33 -1.2541261868620082 2.172210274747618 -1.762913980339035e-32 -7.246326456476379e-33 -4.028914423859943e-32 4.5154092166976225" Properties=species:S:1:pos:R:3:Z:I:1:forces:R:3 stress="-0.12075057004563797 -5.905251106095519e-17 7.279296248591186e-34 -5.905251106095519e-17 -0.12075057004563804 1.07356661705046e-33 7.279296248591186e-34 1.07356661705046e-33 -0.12081455809071545" energy=-325.048945913 Minim_Constant_Volume=T Minim_Hydrostatic_Strain=F pbc="T T T"
Si       0.00000000      -0.00000000      -0.00000000       14       0.00000000      -0.00000000       0.00000000 
Si       0.00000000       1.44814018       2.25770461       14       0.00000000       0.00000000       0.00000000 
2
Lattice="2.6838806155284485 8.46739492285243e-17 -8.666875237837635e-34 -1.3419403077642236 2.3243087937722526 -3.274605241925849e-33 -1.5315143938073912e-33 -7.934350155729545e-33 4.619858940212955" Properties=species:S:1:pos:R:3:Z:I:1:forces:R:3 stress="0.03772569773237832 -1.1187269840614362e-17 5.2691486566871265e-33 -1.1187269840614362e-17 0.03772569773237828 3.0208491170472207e-33 5.2691486566871265e-33 3.0208491170472207e-33 0.03850394425137042" energy=-325.27610385 Minim_Constant_Volume=T Minim_Hydrostatic_Strain=F pbc="T T T"
Si       0.00000000      -0.00000000      -0.00000000       14       0.00000000      -0.00000000      -0.00000000 
Si       0.00000000       1.54953920       2.30992947       14      -0.00000000       0.00000000       0.00000000 
2
Lattice="2.6990529914398285 1.275588567433479e-16 -7.589686771578818e-34 -1.3495264957199136 2.337448456747275 -6.432337437421676e-33 -1.3355217085720406e-33 -1.405354496013624e-32 4.679409588808573" Properties=species:S:1:pos:R:3:Z:I:1:forces:R:3 stress="0.06433394847246754 -3.5924348895314935e-18 2.593953510559339e-34 -3.5924348895314935e-18 0.06433394847246748 -1.9789439194843373e-33 2.593953510559339e-34 -1.9789439194843373e-33 0.06521788951529355" energy=-325.239171555 Minim_Constant_Volume=T Minim_Hydrostatic_Strain=F pbc="T T T"
Si      -0.00000000       0.00000000      -0.00000000       14       0.00000000      -0.00000000      -0.00000000 
Si       0.00000000       1.55829897       2.33970479       14      -0.00000000       0.00000000      -0.00000000 
2
Lattice="2.711222414665597 8.427504451301781e-17 3.457381361686575e-34 -1.355611207332798 2.3479874864101946 -5.844311055776834e-33 5.929532915676221e-34 -1.163454051008865e-32 4.747835458549072" Properties=species:S:1:pos:R:3:Z:I:1:forces:R:3 stress="0.0782263718967699 -3.4621132796285594e-17 -2.1084253023917745e-33 -3.4621132796285594e-17 0.07822637189676988 -5.64766660654961e-33 -2.1084253023917745e-33 -5.64766660654961e-33 0.07865340852903482" energy=-325.188118861 Minim_Constant_Volume=T Minim_Hydrostatic_Strain=F pbc="T T T"
Si       0.00000000      -0.00000000      -0.00000000       14      -0.00000000       0.00000000      -0.00000000 
Si       0.00000000       1.56532499       2.37391773       14       0.00000000      -0.00000000       0.00000000 
2
Lattice="2.721357132074895 3.680767831168167e-17 2.153175897376569e-33 -1.3606785660374467 2.3567644091468223 -9.150189440201541e-34 3.7508501637583125e-33 2.96135522132438e-34 4.822070031075718" Properties=species:S:1:pos:R:3:Z:I:1:forces:R:3 stress="0.08238345572944088 -1.0563295082137816e-17 -4.051636940763678e-34 -1.0563295082137816e-17 0.08238345572944092 -2.2524440838917868e-33 -4.051636940763678e-34 -2.2524440838917868e-33 0.08276774892914533" energy=-325.13111778 Minim_Constant_Volume=T Minim_Hydrostatic_Strain=F pbc="T T T"
Si      -0.00000000       0.00000000      -0.00000000       14       0.00000000       0.00000000       0.00000000 
Si       0.00000000       1.57117627       2.41103502       14      -0.00000000      -0.00000000      -0.00000000 
2
Lattice="2.7299960915621533 1.050717858215509e-16 5.288477875708691e-33 -1.364998045781076 2.3642459675250524 -3.467296496752886e-33 9.256293731933641e-33 -1.7228982140851577e-33 4.9004524016990665" Properties=species:S:1:pos:R:3:Z:I:1:forces:R:3 stress="0.08150383669807287 -3.409764934330579e-17 -2.7694085473407202e-33 -3.409764934330579e-17 0.08150383669807298 -6.32318688857113e-33 -2.7694085473407202e-33 -6.32318688857113e-33 0.08233393464257789" energy=-325.073048491 Minim_Constant_Volume=T Minim_Hydrostatic_Strain=F pbc="T T T"
Si       0.00000000      -0.00000000      -0.00000000       14      -0.00000000      -0.00000000      -0.00000000 
Si       0.00000000       1.57616398       2.45022620       14       0.00000000       0.00000000       0.00000000 
2
Lattice="2.7319277971943117 2.7561984213701123e-16 3.429110826549244e-32 -1.365963898597155 2.365918873675135 1.1426095294309704e-32 6.112721325330702e-32 5.923859909281082e-32 5.001896075562368" Properties=species:S:1:pos:R:3:Z:I:1:forces:R:3 stress="0.07394874930565098 -1.7006957107602747e-17 -1.1918035599703539e-32 -1.7006957107602747e-17 0.07394874930565098 -3.0893155955145236e-32 -1.1918035599703539e-32 -3.0893155955145236e-32 0.07360863024062292" energy=-325.017572668 Minim_Constant_Volume=T Minim_Hydrostatic_Strain=F pbc="T T T"
Si       0.00000000      -0.00000000       0.00000000       14       0.00000000      -0.00000000       0.00000000 
Si       0.00000000       1.57727925       2.50094804       14      -0.00000000       0.00000000      -0.00000000 
