2
Lattice="3.2761160099884883 -1.1006821905525867e-23 -1.0526123615783889e-24 -1.1006821905525867e-23 3.2761160099884883 1.5794580427586444e-17 -1.0526123615783889e-24 1.5794580427586444e-17 3.2761160099884883" Properties=species:S:1:pos:R:3:Z:I:1:forces:R:3 stress="-0.0006390925558769332 1.2331099024621955e-24 2.0551831707703262e-24 1.2331099024621955e-24 -0.000639092555876932 -6.134626935538155e-21 2.0551831707703262e-24 -6.134626935538155e-21 -0.000639092555876932" energy=-12.0089038005 Minim_Constant_Volume=T Minim_Hydrostatic_Strain=F pbc="T T T"
Ti       0.00000000       0.00000000      -0.00000000       22       0.00000000      -0.00000000       0.00000000 
Ti       1.63805800       1.63805800       1.63805800       22       0.00000000      -0.00000000      -0.00000000 
2
Lattice="3.248584321699652 -1.091432323062249e-23 -1.0437664613295591e-24 -1.091432323062249e-23 3.248584321699652 1.5661846585543165e-17 -1.0437664613295591e-24 1.5661846585543165e-17 3.248584321699652" Properties=species:S:1:pos:R:3:Z:I:1:forces:R:3 stress="-0.017408207743949435 -7.106564600170638e-24 -5.016398541296922e-24 -7.106564600170638e-24 -0.01740820774394942 7.642000279254055e-20 -5.016398541296922e-24 7.642000279254055e-20 -0.01740820774394943" energy=-12.0010585574 Minim_Constant_Volume=T Minim_Hydrostatic_Strain=F pbc="T T T"
Ti       0.00000000       0.00000000      -0.00000000       22       0.00000000      -0.00000000       0.00000000 
Ti       1.62429216       1.62429216       1.62429216       22      -0.00000000       0.00000000      -0.00000000 
2
Lattice="3.220577890819914 -1.0820229555074113e-23 -1.0347680268242417e-24 -1.0820229555074113e-23 3.220577890819914 1.5526823947861536e-17 -1.0347680268242417e-24 1.5526823947861536e-17 3.220577890819914" Properties=species:S:1:pos:R:3:Z:I:1:forces:R:3 stress="-0.03677570451823475 4.253353320107943e-25 -9.120215401269916e-42 4.253353320107943e-25 -0.03677570451823476 2.0545884367706357e-18 -9.120215401269916e-42 2.0545884367706357e-18 -0.03677570451823478" energy=-11.9775650627 Minim_Constant_Volume=T Minim_Hydrostatic_Strain=F pbc="T T T"
Ti       0.00000000       0.00000000      -0.00000000       22       0.00000000      -0.00000000      -0.00000000 
Ti       1.61028895       1.61028895       1.61028895       22      -0.00000000      -0.00000000      -0.00000000 
2
Lattice="3.1920757067452503 -1.0724470289202012e-23 -1.0256103073791729e-24 -1.0724470289202012e-23 3.1920757067452503 1.5389411219692997e-17 -1.0256103073791729e-24 1.5389411219692997e-17 3.1920757067452503" Properties=species:S:1:pos:R:3:Z:I:1:forces:R:3 stress="-0.058607511800637835 -1.0391158050327118e-23 2.2962122958984087e-40 -1.0391158050327118e-23 -0.05860751180063781 2.596265050180024e-18 2.2962122958984087e-40 2.596265050180024e-18 -0.058607511800637835" energy=-11.9357749889 Minim_Constant_Volume=T Minim_Hydrostatic_Strain=F pbc="T T T"
Ti       0.00000000       0.00000000      -0.00000000       22      -0.00000000      -0.00000000      -0.00000000 
Ti       1.59603785       1.59603785       1.59603785       22      -0.00000000       0.00000000       0.00000000 
2
Lattice="3.1630552303804365 -1.0626969708029933e-23 -1.0162860612085974e-24 -1.0626969708029933e-23 3.1630552303804365 1.524949973713456e-17 -1.0162860612085974e-24 1.524949973713456e-17 3.1630552303804365" Properties=species:S:1:pos:R:3:Z:I:1:forces:R:3 stress="-0.08220892107495 -1.587406027839111e-23 -3.5275689507535804e-24 -1.587406027839111e-23 -0.08220892107494979 7.73366633742878e-19 -3.5275689507535804e-24 7.73366633742878e-19 -0.08220892107494979" energy=-11.8739620393 Minim_Constant_Volume=T Minim_Hydrostatic_Strain=F pbc="T T T"
Ti       0.00000000       0.00000000      -0.00000000       22       0.00000000       0.00000000      -0.00000000 
Ti       1.58152762       1.58152762       1.58152762       22      -0.00000000       0.00000000       0.00000000 
2
Lattice="3.1334922369434195 -1.0527646423151319e-23 -1.0067875049174927e-24 -1.0527646423151319e-23 3.1334922369434195 1.5106972709368282e-17 -1.0067875049174927e-24 1.5106972709368282e-17 3.1334922369434195" Properties=species:S:1:pos:R:3:Z:I:1:forces:R:3 stress="-0.10696801822084316 -3.594444775931967e-24 -2.8755558207455735e-23 -3.594444775931967e-24 -0.10696801822084301 2.3258096193718134e-18 -2.8755558207455735e-23 2.3258096193718134e-18 -0.10696801822084304" energy=-11.7908361546 Minim_Constant_Volume=T Minim_Hydrostatic_Strain=F pbc="T T T"
Ti       0.00000000       0.00000000      -0.00000000       22       0.00000000      -0.00000000       0.00000000 
Ti       1.56674612       1.56674612       1.56674612       22      -0.00000000       0.00000000      -0.00000000 
2
Lattice="3.303192576799459 -1.1097791501166796e-23 -1.0613120318121151e-24 -1.1097791501166796e-23 3.303192576799459 1.592512006992356e-17 -1.0613120318121151e-24 1.592512006992356e-17 3.303192576799459" Properties=species:S:1:pos:R:3:Z:I:1:forces:R:3 stress="0.014578274909401195 5.660559017184468e-24 4.04325644084605e-24 5.660559017184468e-24 0.014578274909401185 -6.020803844242162e-19 4.04325644084605e-24 -6.020803844242162e-19 0.014578274909401195" energy=-12.002628247 Minim_Constant_Volume=T Minim_Hydrostatic_Strain=F pbc="T T T"
Ti       0.00000000       0.00000000      -0.00000000       22      -0.00000000       0.00000000       0.00000000 
Ti       1.65159629       1.65159629       1.65159629       22      -0.00000000       0.00000000      -0.00000000 
2
Lattice="3.329832377055114 -1.1187293684886414e-23 -1.0698713694465538e-24 -1.1187293684886414e-23 3.329832377055114 1.6053554004018054e-17 -1.0698713694465538e-24 1.6053554004018054e-17 3.329832377055114" Properties=species:S:1:pos:R:3:Z:I:1:forces:R:3 stress="0.028458940836763945 2.9563115651440296e-41 -3.978820356872681e-25 2.9563115651440296e-41 0.02845894083676395 -9.341934582733323e-19 -3.978820356872681e-25 -9.341934582733323e-19 0.02845894083676397" energy=-11.9835942719 Minim_Constant_Volume=T Minim_Hydrostatic_Strain=F pbc="T T T"
Ti       0.00000000       0.00000000      -0.00000000       22       0.00000000       0.00000000      -0.00000000 
Ti       1.66491619       1.66491619       1.66491619       22      -0.00000000      -0.00000000       0.00000000 
2
Lattice="3.3560526091907676 -1.1275386238556303e-23 -1.0782959003194826e-24 -1.1275386238556303e-23 3.3560526091907676 1.617996514575843e-17 -1.0782959003194826e-24 1.617996514575843e-17 3.3560526091907676" Properties=species:S:1:pos:R:3:Z:I:1:forces:R:3 stress="0.04090924940544435 1.5189445024483477e-40 -3.9168916167801593e-25 1.5189445024483477e-40 0.040909249405444284 -1.9053309622124403e-18 -3.9168916167801593e-25 -1.9053309622124403e-18 0.04090924940544431" energy=-11.9530142214 Minim_Constant_Volume=T Minim_Hydrostatic_Strain=F pbc="T T T"
Ti       0.00000000       0.00000000      -0.00000000       22      -0.00000000      -0.00000000       0.00000000 
Ti       1.67802630       1.67802630       1.67802630       22      -0.00000000      -0.00000000       0.00000000 
2
Lattice="3.38186941303937 -1.1362123387443913e-23 -1.0865908101409387e-24 -1.1362123387443913e-23 3.38186941303937 1.6304431307373812e-17 -1.0865908101409387e-24 1.6304431307373812e-17 3.38186941303937" Properties=species:S:1:pos:R:3:Z:I:1:forces:R:3 stress="0.051941463325858236 1.9286588370970676e-25 2.57743453380888e-43 1.9286588370970676e-25 0.05194146332585822 -1.2188842470133746e-18 2.57743453380888e-43 -1.2188842470133746e-18 0.05194146332585822" energy=-11.9121144571 Minim_Constant_Volume=T Minim_Hydrostatic_Strain=F pbc="T T T"
Ti       0.00000000       0.00000000      -0.00000000       22       0.00000000      -0.00000000       0.00000000 
Ti       1.69093471       1.69093471       1.69093471       22      -0.00000000       0.00000000      -0.00000000 
2
Lattice="3.4072979574092024 -1.1447556094448845e-23 -1.0947609726318341e-24 -1.1447556094448845e-23 3.4072979574092024 1.6427025619657395e-17 -1.0947609726318341e-24 1.6427025619657395e-17 3.4072979574092024" Properties=species:S:1:pos:R:3:Z:I:1:forces:R:3 stress="0.06169127393921535 -3.7999584594914436e-24 -7.599916918982884e-25 -3.7999584594914436e-24 0.06169127393921533 1.3195406805774167e-18 -7.599916918982884e-25 1.3195406805774167e-18 0.06169127393921528" energy=-11.8620587383 Minim_Constant_Volume=T Minim_Hydrostatic_Strain=F pbc="T T T"
Ti       0.00000000       0.00000000      -0.00000000       22       0.00000000      -0.00000000       0.00000000 
Ti       1.70364898       1.70364898       1.70364898       22      -0.00000000      -0.00000000       0.00000000 
2
Lattice="3.4323525186433193 -1.1531732324040295e-23 -1.1028109747650146e-24 -1.1531732324040295e-23 3.4323525186433193 1.6547816910711688e-17 -1.1028109747650146e-24 1.6547816910711688e-17 3.4323525186433193" Properties=species:S:1:pos:R:3:Z:I:1:forces:R:3 stress="0.06991785438652799 1.1234055328018708e-24 1.8723425546697848e-24 1.1234055328018708e-24 0.06991785438652796 -1.1818268541822052e-18 1.8723425546697848e-24 -1.1818268541822052e-18 0.06991785438652799" energy=-11.8040921292 Minim_Constant_Volume=T Minim_Hydrostatic_Strain=F pbc="T T T"
Ti       0.00000000       0.00000000      -0.00000000       22      -0.00000000       0.00000000       0.00000000 
Ti       1.71617626       1.71617626       1.71617626       22      -0.00000000      -0.00000000      -0.00000000 
