2
Lattice="2.844634022503495 3.9471663933072916e-18 1.8647296576250386e-33 -1.422317011251747 2.463525327957542 -8.623719065602178e-33 3.147654296233207e-33 -1.5671781506495904e-32 4.9142591646479366" Properties=species:S:1:pos:R:3:Z:I:1:forces:R:3 stress="0.00015073981725792024 -4.0657581468206416e-20 -2.6182400043662504e-36 -4.0657581468206416e-20 0.0001507398172579201 -2.212120308106058e-33 -2.6182400043662504e-36 -2.212120308106058e-33 0.00012716382428310473" energy=-12.0139351575 Minim_Constant_Volume=T Minim_Hydrostatic_Strain=F pbc="T T T"
Ti       0.00000000      -0.00000000      -0.00000000       22       0.00000000      -0.00000000      -0.00000000 
Ti       0.00000000       1.64235022       2.45712958       22      -0.00000000       0.00000000       0.00000000 
2
Lattice="2.8124455701888844 -2.3898687008733417e-17 3.528072518611319e-34 -1.4062227850944415 2.4356493105445853 -8.772391717448318e-32 5.084211758262317e-34 -1.7483171219666922e-31 4.901579400986439" Properties=species:S:1:pos:R:3:Z:I:1:forces:R:3 stress="-0.01976864840328179 3.469446951953614e-18 7.879500151860127e-32 3.469446951953614e-18 -0.01976864840328177 -3.8268991705678654e-32 7.879500151860127e-32 -3.8268991705678654e-32 -0.019609467324907082" energy=-12.0056029392 Minim_Constant_Volume=T Minim_Hydrostatic_Strain=F pbc="T T T"
Ti       0.00000000      -0.00000000       0.00000000       22      -0.00000000       0.00000000      -0.00000000 
Ti       0.00000000       1.62376621       2.45078970       22       0.00000000      -0.00000000       0.00000000 
2
Lattice="2.772979478275914 -6.906252975049393e-17 3.435513436742376e-32 -1.3864897391379563 2.4014706723598613 -1.6573683168307035e-31 5.975976825914113e-32 -2.947679189552807e-31 4.9124979582876" Properties=species:S:1:pos:R:3:Z:I:1:forces:R:3 stress="-0.029129933534284447 3.469446951953614e-18 5.080535295743645e-32 3.469446951953614e-18 -0.029129933534284412 -8.184272755685753e-32 5.080535295743645e-32 -8.184272755685753e-32 -0.02908753124104615" energy=-11.9836316691 Minim_Constant_Volume=T Minim_Hydrostatic_Strain=F pbc="T T T"
Ti       0.00000000      -0.00000000       0.00000000       22       0.00000000      -0.00000000       0.00000000 
Ti       0.00000000       1.60098045       2.45624898       22      -0.00000000       0.00000000      -0.00000000 
2
Lattice="2.7264235718940197 -1.2375418530775453e-16 5.905705684170774e-32 -1.3632117859470092 2.361152074736931 1.1995575389703758e-31 1.0208423706297415e-31 3.220277567102712e-31 4.947458966136348" Properties=species:S:1:pos:R:3:Z:I:1:forces:R:3 stress="-0.04324124750734587 1.734723475976807e-17 -3.355529754361051e-32 1.734723475976807e-17 -0.04324124750734581 -6.553709870844706e-33 -3.355529754361051e-32 -6.553709870844706e-33 -0.04318756020854267" energy=-11.9538957577 Minim_Constant_Volume=T Minim_Hydrostatic_Strain=F pbc="T T T"
Ti       0.00000000      -0.00000000       0.00000000       22       0.00000000      -0.00000000      -0.00000000 
Ti       0.00000000       1.57410138       2.47372948       22      -0.00000000       0.00000000       0.00000000 
2
Lattice="2.6901221977846483 -1.051943797499243e-16 3.64576831142941e-32 -1.3450610988923235 2.3297141625659323 7.391254558888537e-32 5.976407814207079e-32 1.9772831576848794e-31 4.945213791454598" Properties=species:S:1:pos:R:3:Z:I:1:forces:R:3 stress="-0.06222075270373722 6.938893903907228e-18 -7.431054879031086e-32 6.938893903907228e-18 -0.062220752703737205 -2.1417232664352725e-31 -7.431054879031086e-32 -2.1417232664352725e-31 -0.06221446464583576" energy=-11.9105941721 Minim_Constant_Volume=T Minim_Hydrostatic_Strain=F pbc="T T T"
Ti       0.00000000      -0.00000000       0.00000000       22       0.00000000       0.00000000       0.00000000 
Ti      -0.00000000       1.55314278       2.47260690       22       0.00000000       0.00000000       0.00000000 
2
Lattice="2.652529783431404 -2.427910413805275e-16 2.1389974586060067e-31 -1.3262648917157016 2.297158176746432 5.28317602651682e-31 3.8512051947776485e-31 1.3478493957266439e-30 4.945040298774922" Properties=species:S:1:pos:R:3:Z:I:1:forces:R:3 stress="-0.11422283829852156 -1.3877787807814457e-17 8.723520878895927e-33 -1.3877787807814457e-17 -0.11422283829852141 1.7453262241763941e-31 8.723520878895927e-33 1.7453262241763941e-31 -0.11442126005852793" energy=-11.8353727944 Minim_Constant_Volume=T Minim_Hydrostatic_Strain=F pbc="T T T"
Ti       0.00000000      -0.00000000       0.00000000       22       0.00000000      -0.00000000      -0.00000000 
Ti      -0.00000000       1.53143878       2.47252015       22      -0.00000000       0.00000000       0.00000000 
2
Lattice="2.878173173003006 1.3350104995313245e-17 1.4002421671910467e-35 -1.4390865865015023 2.4925710843114683 5.4172348222143464e-33 -5.127275109902327e-35 1.051133899672202e-32 4.920207342596762" Properties=species:S:1:pos:R:3:Z:I:1:forces:R:3 stress="0.010661186049908147 -2.6020852139652106e-18 7.76842069336831e-35 -2.6020852139652106e-18 0.010661186049908138 1.5183821997099805e-33 7.76842069336831e-35 1.5183821997099805e-33 0.010567541631495807" energy=-12.0088434439 Minim_Constant_Volume=T Minim_Hydrostatic_Strain=F pbc="T T T"
Ti       0.00000000      -0.00000000       0.00000000       22      -0.00000000       0.00000000       0.00000000 
Ti       0.00000000       1.66171406       2.46010367       22       0.00000000      -0.00000000      -0.00000000 
2
Lattice="2.909808815394286 3.670583507160766e-17 -3.103435409560649e-32 -1.4549044076971422 2.5199683542873563 1.6762830402627846e-31 -5.312873534058497e-32 3.001551528205106e-31 4.931288128431939" Properties=species:S:1:pos:R:3:Z:I:1:forces:R:3 stress="0.019539509672632634 1.734723475976807e-18 7.091905949432353e-33 1.734723475976807e-18 0.019539509672632602 1.723614163376116e-32 7.091905949432353e-33 1.723614163376116e-32 0.019418747851573562" energy=-11.9955894027 Minim_Constant_Volume=T Minim_Hydrostatic_Strain=F pbc="T T T"
Ti       0.00000000      -0.00000000      -0.00000000       22       0.00000000      -0.00000000      -0.00000000 
Ti       0.00000000       1.67997890       2.46564406       22      -0.00000000       0.00000000      -0.00000000 
2
Lattice="2.9426905913524632 6.807672856848113e-17 -1.0804900764556604e-31 -1.471345295676231 2.548444807588686 1.8659713585229735e-31 -1.8419166852140569e-31 2.6500056075818057e-31 4.936454519108099" Properties=species:S:1:pos:R:3:Z:I:1:forces:R:3 stress="0.0238601847531383 -1.0408340855860843e-17 1.5996140634407778e-32 -1.0408340855860843e-17 0.023860184753138267 8.035878686258337e-32 1.5996140634407778e-32 8.035878686258337e-32 0.02386647725790196" energy=-11.976627814 Minim_Constant_Volume=T Minim_Hydrostatic_Strain=F pbc="T T T"
Ti       0.00000000      -0.00000000      -0.00000000       22       0.00000000      -0.00000000      -0.00000000 
Ti      -0.00000000       1.69896321       2.46822726       22      -0.00000000       0.00000000       0.00000000 
2
Lattice="2.9731082821240777 9.542355157253851e-17 -1.6786371961676275e-31 -1.4865541410620382 2.574787300521364 3.8623659432940987e-31 -2.85994498292293e-31 5.958922549612615e-31 4.948495917022428" Properties=species:S:1:pos:R:3:Z:I:1:forces:R:3 stress="0.02792154489562847 -2.0816681711721685e-17 1.3813065271359115e-32 -2.0816681711721685e-17 0.02792154489562844 -9.983612040625787e-32 1.3813065271359115e-32 -9.983612040625787e-32 0.028043107414311003" energy=-11.954559613 Minim_Constant_Volume=T Minim_Hydrostatic_Strain=F pbc="T T T"
Ti       0.00000000      -0.00000000      -0.00000000       22       0.00000000       0.00000000       0.00000000 
Ti      -0.00000000       1.71652487       2.47424796       22      -0.00000000      -0.00000000      -0.00000000 
2
Lattice="2.9950364108722534 7.667239392750287e-17 -2.783427769202801e-31 -1.497518205436126 2.59377761707474 2.1871491863751253e-31 -4.698004090943464e-31 1.6761398861733043e-31 4.987227409858787" Properties=species:S:1:pos:R:3:Z:I:1:forces:R:3 stress="0.03463175279844733 3.469446951953614e-18 8.139266762375878e-32 3.469446951953614e-18 0.0346317527984473 1.7334924965691872e-31 8.139266762375878e-32 1.7334924965691872e-31 0.03470306052995855" energy=-11.9275749197 Minim_Constant_Volume=T Minim_Hydrostatic_Strain=F pbc="T T T"
Ti       0.00000000      -0.00000000      -0.00000000       22       0.00000000      -0.00000000       0.00000000 
Ti      -0.00000000       1.72918508       2.49361370       22      -0.00000000       0.00000000      -0.00000000 
2
Lattice="3.0138281534567275 1.0540083588635007e-16 -5.321146416241293e-31 -1.506914076728363 2.6100517435342723 -7.73234107633813e-31 -8.909116372827477e-31 -1.9840468288655877e-30 5.034661392340677" Properties=species:S:1:pos:R:3:Z:I:1:forces:R:3 stress="0.03439096801091565 -1.3877787807814457e-17 5.395371709286196e-32 -1.3877787807814457e-17 0.03439096801091561 1.078818576256442e-31 5.395371709286196e-32 1.078818576256442e-31 0.03437802927247039" energy=-11.897349741 Minim_Constant_Volume=T Minim_Hydrostatic_Strain=F pbc="T T T"
Ti       0.00000000      -0.00000000      -0.00000000       22       0.00000000       0.00000000       0.00000000 
Ti      -0.00000000       1.74003450       2.51733070       22       0.00000000       0.00000000       0.00000000 
