40
Lattice="4.495295265122461 2.233814075761954e-08 8.253853479597709e-07 2.2338196807379468e-08 4.495295689881813 -1.7720298975322548e-06 5.836375061250903e-06 -1.253017018862139e-05 41.78648576552642" Properties=species:S:1:pos:R:3:Z:I:1 energy=-437.035702532 pbc="T T T"
W       0.00000213      -0.00000090      -0.00000224       74 
W       0.00000151       2.24764773       1.58932548       74 
W       2.24764644       2.24764901       0.00000355       74 
W       2.24764605      -0.00000152       1.58932117       74 
W       0.00000272      -0.00000216       3.17864634       74 
W       0.00000209       2.24764648       4.76797405       74 
W       2.24764702       2.24764775       3.17865212       74 
W       2.24764664      -0.00000278       4.76796975       74 
W       0.00000330      -0.00000341       6.35729491       74 
W       0.00000267       2.24764522       7.94662263       74 
W       2.24764761       2.24764650       6.35730070       74 
W       2.24764722      -0.00000403       7.94661833       74 
W       0.00000388      -0.00000466       9.53594349       74 
W       0.00000326       2.24764397      11.12527121       74 
W       2.24764819       2.24764525       9.53594928       74 
W       2.24764780      -0.00000528      11.12526690       74 
W       0.00000447      -0.00000592      12.71459207       74 
W       0.00000384       2.24764272      14.30391978       74 
W       2.24764877       2.24764399      12.71459785       74 
W       2.24764839      -0.00000654      14.30391548       74 
W       0.00000505      -0.00000717      15.89324064       74 
W       0.00000442       2.24764146      17.48256836       74 
W       2.24764936       2.24764274      15.89324643       74 
W       2.24764897      -0.00000779      17.48256406       74 
W       0.00000564      -0.00000842      19.07188922       74 
W       0.00000501       2.24764021      20.66121694       74 
W       2.24764994       2.24764149      19.07189501       74 
W       2.24764955      -0.00000904      20.66121263       74 
W       0.00000622      -0.00000968      22.25053780       74 
W       0.00000559       2.24763896      23.83986551       74 
W       2.24765053       2.24764024      22.25054358       74 
W       2.24765014      -0.00001030      23.83986121       74 
W       0.00000680      -0.00001093      25.42918637       74 
W       0.00000618       2.24763771      27.01851409       74 
W       2.24765111       2.24763898      25.42919216       74 
W       2.24765072      -0.00001155      27.01850979       74 
W       0.00000739      -0.00001218      28.60783495       74 
W       0.00000676       2.24763645      30.19716267       74 
W       2.24765169       2.24763773      28.60784074       74 
W       2.24765131      -0.00001280      30.19715836       74 
40
Lattice="4.495295265122461 2.233814075761954e-08 8.253853479597709e-07 2.2338196807379468e-08 4.495295689881813 -1.7720298975322548e-06 5.836375061250903e-06 -1.253017018862139e-05 41.78648576552642" Properties=species:S:1:pos:R:3:Z:I:1:forces:R:3 pbc="T T T"
W       0.00000190      -0.00000121       0.06535126       74      -0.00001316      -0.00000370       0.69770012 
W       0.00000162       2.24764843       1.53021102       74      -0.00002383      -0.00004305      -0.29295839 
W       2.24764579       2.24765025       0.06535230       74      -0.00000012      -0.00002050       0.69762476 
W       2.24764784      -0.00000206       1.53020757       74       0.00005370       0.00003234      -0.29279650 
W       0.00000152      -0.00000184       3.16979553       74      -0.00003800       0.00003753      -0.04690691 
W       0.00000196       2.24764618       4.77277974       74      -0.00009526      -0.00001515      -0.35243671 
W       2.24764616       2.24764764       3.16980063       74       0.00004765      -0.00003605      -0.04707009 
W       2.24764964      -0.00000020       4.77277387       74       0.00002187      -0.00004742      -0.35233196 
W      -0.00000056      -0.00000229       6.35454775       74       0.00002169       0.00002137      -0.02083590 
W       0.00000141       2.24764319       7.94688976       74       0.00005683      -0.00000650       0.02302267 
W       2.24764807       2.24764293       6.35454803       74       0.00007354       0.00011552      -0.02112464 
W       2.24765176      -0.00000149       7.94688816       74      -0.00005018      -0.00004257       0.02297290 
W       0.00000023      -0.00000202       9.53594633       74       0.00000296      -0.00002674      -0.01759331 
W       0.00000272       2.24764174      11.12527456       74       0.00000605       0.00004693       0.00211416 
W       2.24764943       2.24764135       9.53594559       74      -0.00004320      -0.00002935      -0.01760180 
W       2.24765093      -0.00000339      11.12527062       74      -0.00002045       0.00001026       0.00203075 
W       0.00000081      -0.00000267      12.71459745       74       0.00004719      -0.00001829       0.00048956 
W       0.00000239       2.24763961      14.30392158       74       0.00002800       0.00004712      -0.00039042 
W       2.24764914       2.24764267      12.71459475       74      -0.00000874      -0.00003405       0.00033523 
W       2.24765200      -0.00000627      14.30391450       74      -0.00006656       0.00000290      -0.00028446 
W       0.00000222      -0.00000518      15.89324648       74       0.00004305      -0.00006157       0.00023634 
W       0.00000256       2.24764056      17.48256465       74       0.00001159       0.00002550      -0.00038833 
W       2.24765251       2.24764035      15.89324659       74      -0.00003448       0.00004713       0.00020582 
W       2.24765288      -0.00000539      17.48256535       74      -0.00002367      -0.00000476      -0.00052064 
W       0.00000140      -0.00000478      19.07189212       74       0.00005555      -0.00002303      -0.00215966 
W       0.00000397       2.24763851      20.66121658       74       0.00001814      -0.00000117       0.01757088 
W       2.24764883       2.24764079      19.07189332       74       0.00002614       0.00002977      -0.00202682 
W       2.24765435      -0.00000883      20.66121535       74      -0.00005460       0.00003093       0.01759741 
W       0.00000110      -0.00000845      22.25027225       74       0.00002024      -0.00004020      -0.02279178 
W       0.00000677       2.24763817      23.84261531       74      -0.00009924       0.00001539       0.02105122 
W       2.24765179       2.24763847      22.25027039       74       0.00002163       0.00001161      -0.02294331 
W       2.24765578      -0.00000849      23.84261558       74      -0.00002679       0.00001956       0.02099440 
W       0.00000412      -0.00000898      25.42438331       74      -0.00000940      -0.00004333       0.35241556 
W       0.00000542       2.24763687      27.02736692       74      -0.00004123       0.00007864       0.04689173 
W       2.24765009       2.24763717      25.42438486       74       0.00009884      -0.00001675       0.35235558 
W       2.24765072      -0.00001083      27.02736263       74       0.00003206      -0.00003001       0.04684065 
W       0.00000647      -0.00001105      28.66695337       74      -0.00005831      -0.00003671       0.29282776 
W       0.00000772       2.24763655      30.13180371       74       0.00000567       0.00002638      -0.69753108 
W       2.24765265       2.24763701      28.66695297       74       0.00001665       0.00000705       0.29285468 
W       2.24765127      -0.00001310      30.13180526       74       0.00001568       0.00001541      -0.69762020 
40
Lattice="4.495295265122461 2.233814075761954e-08 8.253853479597709e-07 2.2338196807379468e-08 4.495295689881813 -1.7720298975322548e-06 5.836375061250903e-06 -1.253017018862139e-05 41.78648576552642" Properties=species:S:1:pos:R:3:Z:I:1:forces:R:3 pbc="T T T"
W       0.00000157      -0.00000137       0.09744688       74       0.00003011       0.00008120       0.13914016 
W       0.00000117       2.24764776       1.50796844       74      -0.00004015      -0.00012783       0.28226804 
W       2.24764561       2.24765018       0.09744508       74       0.00000861      -0.00007299       0.13949084 
W       2.24764941      -0.00000156       1.50796846       74      -0.00000064       0.00007562       0.28227553 
W       0.00000042      -0.00000100       3.16640418       74       0.00001269       0.00001834       0.02319559 
W       0.00000002       2.24764580       4.76703365       74      -0.00004571       0.00002201      -0.38768348 
W       2.24764688       2.24764688       3.16640581       74       0.00008655      -0.00000980       0.02301047 
W       2.24765091      -0.00000044       4.76702945       74      -0.00006976       0.00000475      -0.38779397 
W      -0.00000120      -0.00000155       6.35336910       74       0.00006212      -0.00005747      -0.03665850 
W       0.00000220       2.24764250       7.94742594       74       0.00002473       0.00012630      -0.01637176 
W       2.24764967       2.24764426       6.35336206       74      -0.00000105       0.00000201      -0.03636790 
W       2.24765201      -0.00000164       7.94742408       74      -0.00000320      -0.00005791      -0.01635911 
W      -0.00000072      -0.00000183       9.53559388       74      -0.00001391      -0.00012921      -0.01292431 
W       0.00000269       2.24764206      11.12531793       74       0.00000636       0.00009733       0.00250778 
W       2.24764890       2.24763969       9.53559117       74      -0.00001847       0.00008053      -0.01294747 
W       2.24765139      -0.00000265      11.12531242       74      -0.00006719      -0.00006852       0.00257801 
W       0.00000075      -0.00000214      12.71460877       74       0.00005653      -0.00009220      -0.00157388 
W       0.00000255       2.24763969      14.30391424       74      -0.00000006       0.00008445       0.00013092 
W       2.24764907       2.24764162      12.71460062       74       0.00005786       0.00003953      -0.00162173 
W       2.24765166      -0.00000614      14.30390851       74      -0.00004961       0.00005007       0.00032216 
W       0.00000230      -0.00000586      15.89325284       74       0.00004268      -0.00001952      -0.00016607 
W       0.00000228       2.24764083      17.48255583       74      -0.00001416       0.00003340       0.00168529 
W       2.24765269       2.24764063      15.89325076       74      -0.00002979      -0.00000150      -0.00016270 
W       2.24765349      -0.00000482      17.48255525       74      -0.00005291      -0.00007874       0.00174147 
W       0.00000134      -0.00000423      19.07184956       74       0.00006120      -0.00012240      -0.00261494 
W       0.00000404       2.24763801      20.66156926       74       0.00001985       0.00007630       0.01292785 
W       2.24764905       2.24764119      19.07185216       74       0.00005145       0.00002881      -0.00258034 
W       2.24765458      -0.00000816      20.66156941       74      -0.00012786       0.00001020       0.01286210 
W       0.00000009      -0.00000892      22.24974115       74       0.00015395      -0.00003472       0.01639302 
W       0.00000510       2.24763826      23.84379901       74       0.00000783      -0.00000992       0.03646578 
W       2.24765257       2.24763822      22.24973413       74      -0.00002316       0.00001286       0.01663048 
W       2.24765680      -0.00000759      23.84379941       74      -0.00012018      -0.00003207       0.03651408 
W       0.00000319      -0.00000931      25.43012970       74       0.00000426      -0.00000731       0.38787664 
W       0.00000439       2.24763822      27.03075853       74      -0.00001811      -0.00000081      -0.02311322 
W       2.24765179       2.24763634      25.43012888       74       0.00001876       0.00003194       0.38784801 
W       2.24765137      -0.00001124      27.03075321       74       0.00003516       0.00001204      -0.02302792 
W       0.00000505      -0.00001148      28.68919444       74      -0.00000993       0.00003484      -0.28233045 
W       0.00000810       2.24763711      30.09970999       74       0.00002759      -0.00000916      -0.13914184 
W       2.24765325       2.24763695      28.68919286       74      -0.00001229       0.00004248      -0.28236670 
W       2.24765158      -0.00001287      30.09971136       74      -0.00001413      -0.00006027      -0.13935580 
40
Lattice="4.495295265122461 2.233814075761954e-08 8.253853479597709e-07 2.2338196807379468e-08 4.495295689881813 -1.7720298975322548e-06 5.836375061250903e-06 -1.253017018862139e-05 41.78648576552642" Properties=species:S:1:pos:R:3:Z:I:1:forces:R:3 pbc="T T T"
W       0.00000340       0.00000378       0.11510692       74      -0.00000995      -0.00003407       0.04627539 
W      -0.00000155       2.24763934       1.52034214       74       0.00007956       0.00012445       0.12001745 
W       2.24764612       2.24764546       0.11512677       74      -0.00003785      -0.00001863       0.04594318 
W       2.24764984       0.00000346       1.52034377       74      -0.00003747      -0.00013360       0.12019686 
W       0.00000091       0.00000044       3.16701676       74       0.00000719      -0.00003038      -0.01193025 
W      -0.00000355       2.24764709       4.74020407       74       0.00008953       0.00001984       0.11994023 
W       2.24765267       2.24764601       3.16700543       74      -0.00006360       0.00005637      -0.01170972 
W       2.24764678      -0.00000029       4.74019340       74       0.00004780      -0.00003540       0.12024627 
W       0.00000268      -0.00000501       6.35071161       74      -0.00004145       0.00000618      -0.13051374 
W       0.00000408       2.24765041       7.94654755       74      -0.00006768      -0.00013006      -0.13772159 
W       2.24765012       2.24764492       6.35072090       74       0.00001455       0.00001259      -0.13072361 
W       2.24765177      -0.00000547       7.94654635       74      -0.00006288       0.00008398      -0.13747360 
W      -0.00000182      -0.00001010       9.53465084       74       0.00007240       0.00020134      -0.00129472 
W       0.00000310       2.24764846      11.12549257       74      -0.00004501      -0.00015289      -0.00844794 
W       2.24764751       2.24764440       9.53464618       74       0.00004584      -0.00006993      -0.00123101 
W       2.24764715      -0.00000685      11.12549102       74       0.00005563       0.00006354      -0.00828010 
W       0.00000444      -0.00000795      12.71451165       74      -0.00001463       0.00011140      -0.00482703 
W       0.00000264       2.24764521      14.30392015       74      -0.00003063      -0.00007632       0.00123781 
W       2.24765274       2.24764385      12.71449888       74       0.00000715      -0.00000717      -0.00447940 
W       2.24764828      -0.00000290      14.30392718       74       0.00001481      -0.00006050       0.00118747 
W       0.00000513      -0.00000739      15.89324414       74      -0.00003410       0.00000165      -0.00122306 
W       0.00000133       2.24764307      17.48266086       74      -0.00000577      -0.00000733       0.00443759 
W       2.24765076       2.24764069      15.89324172       74       0.00000313       0.00002653      -0.00114538 
W       2.24765020      -0.00000974      17.48266332       74       0.00005077       0.00007025       0.00443895 
W       0.00000535      -0.00001198      19.07166816       74      -0.00007902       0.00011018       0.00854614 
W       0.00000537       2.24764278      20.66251253       74      -0.00007321      -0.00010982       0.00147581 
W       2.24765245       2.24764319      19.07167356       74       0.00001699      -0.00005841       0.00844305 
W       2.24764635      -0.00000728      20.66250885       74       0.00011352      -0.00002741       0.00145833 
W       0.00000975      -0.00001133      22.25062253       74      -0.00015997       0.00005113       0.13747881 
W       0.00000502       2.24763767      23.84644577       74       0.00002404      -0.00001887       0.13067838 
W       2.24765131       2.24763901      22.25062922       74       0.00004463       0.00001511       0.13752887 
W       2.24764929      -0.00000940      23.84644917       74       0.00009091      -0.00001432       0.13047332 
W       0.00000323      -0.00000994      25.45697166       74       0.00004800      -0.00000075      -0.12007491 
W       0.00000291       2.24763864      27.03015124       74       0.00003041       0.00002803       0.01174792 
W       2.24765358       2.24763815      25.45696835       74      -0.00007762      -0.00001970      -0.12013283 
W       2.24765383      -0.00001062      27.03015104       74       0.00000673       0.00007331       0.01184181 
W       0.00000397      -0.00000942      28.67681613       74      -0.00003665      -0.00002633      -0.12001563 
W       0.00000996       2.24763670      30.08205060       74      -0.00002799       0.00003034      -0.04615433 
W       2.24765264       2.24763967      28.67681202       74       0.00003186      -0.00007356      -0.11996543 
W       2.24765078      -0.00001664      30.08203806       74       0.00001298       0.00004843      -0.04595824 
40
Lattice="4.495295265122461 2.233814075761954e-08 8.253853479597709e-07 2.2338196807379468e-08 4.495295689881813 -1.7720298975322548e-06 5.836375061250903e-06 -1.253017018862139e-05 41.78648576552642" Properties=species:S:1:pos:R:3:Z:I:1:forces:R:3 pbc="T T T"
W       0.00000296       0.00000207       0.11545609       74       0.00009477      -0.00006408       0.15916648 
W       0.00000366       2.24764695       1.53442191       74      -0.00002943       0.00005650      -0.08705942 
W       2.24764360       2.24764352       0.11545590       74      -0.00000036      -0.00000387       0.15919390 
W       2.24764712      -0.00000520       1.53443598       74      -0.00004853       0.00007529      -0.08726271 
W       0.00000159      -0.00000155       3.16689783       74      -0.00000777       0.00003003       0.03381563 
W       0.00000234       2.24764866       4.74527160       74       0.00000974      -0.00009857       0.00334603 
W       2.24764898       2.24764986       3.16690044       74      -0.00001288      -0.00008150       0.03370615 
W       2.24764937      -0.00000285       4.74528139       74       0.00002911       0.00006152       0.00336015 
W       0.00000051      -0.00000510       6.34151962       74      -0.00000149       0.00005815       0.01084944 
W      -0.00000037       2.24764248       7.93682951       74      -0.00001395       0.00009157       0.01323676 
W       2.24765108       2.24764600       6.34151699       74      -0.00002762      -0.00000475       0.01106943 
W       2.24764712      -0.00000023       7.93684549       74      -0.00003797      -0.00008808       0.01309711 
W       0.00000331       0.00000272       9.53446234       74       0.00001689      -0.00015442      -0.09498035 
W       0.00000005       2.24763872      11.12492474       74       0.00010976       0.00010451      -0.04181040 
W       2.24765049       2.24764041       9.53446231       74      -0.00001900       0.00015288      -0.09490646 
W       2.24765031      -0.00000309      11.12493540       74      -0.00002699      -0.00013274      -0.04189015 
W       0.00000408      -0.00000112      12.71416346       74       0.00001441      -0.00001085       0.00186927 
W       0.00000059       2.24764075      14.30400716       74       0.00004471      -0.00005335      -0.00362311 
W       2.24765367       2.24764374      12.71417500       74      -0.00007635       0.00008096       0.00182128 
W       2.24764872      -0.00000673      14.30401234       74       0.00001856      -0.00006933      -0.00380833 
W       0.00000326      -0.00000753      15.89315747       74      -0.00000338       0.00009965       0.00358058 
W       0.00000092       2.24764288      17.48298275       74       0.00000321      -0.00005165      -0.00161363 
W       2.24765056       2.24764266      15.89316081       74       0.00003406       0.00003543       0.00357266 
W       2.24765308      -0.00000562      17.48298548       74      -0.00003957      -0.00005664      -0.00168911 
W       0.00000058      -0.00000550      19.07224161       74       0.00008140      -0.00006407       0.04180141 
W       0.00000049       2.24763585      20.66271350       74       0.00007269       0.00006715       0.09475067 
W       2.24765409       2.24763939      19.07224037       74      -0.00009522       0.00008878       0.04198083 
W       2.24765296      -0.00000913      20.66270790       74      -0.00009165       0.00002692       0.09462361 
W       0.00000015      -0.00000811      22.26032373       74       0.00008792      -0.00001646      -0.01310025 
W       0.00000670       2.24763633      23.85564748       74      -0.00007070      -0.00002251      -0.01107289 
W       2.24765415       2.24764026      22.26033624       74      -0.00002381      -0.00008806      -0.01326253 
W       2.24765434      -0.00001076      23.85563676       74      -0.00001413       0.00007196      -0.01079389 
W       0.00000676      -0.00001016      25.45189615       74      -0.00003463       0.00002695      -0.00371922 
W       0.00000493       2.24764061      27.03025804       74       0.00004014      -0.00003365      -0.03365491 
W       2.24764838       2.24763715      25.45188884       74       0.00010552       0.00002547      -0.00353304 
W       2.24765457      -0.00000547      27.03026504       74      -0.00007872      -0.00009447      -0.03372761 
W       0.00000141      -0.00001103      28.66273579       74       0.00012970       0.00002946       0.08723177 
W       0.00000818       2.24763873      30.08171012       74      -0.00001940      -0.00000964      -0.15920554 
W       2.24765469       2.24763493      28.66273524       74      -0.00005948       0.00006867       0.08701124 
W       2.24765157      -0.00001374      30.08170920       74      -0.00002902      -0.00000162      -0.15920791 
40
Lattice="4.495295265122461 2.233814075761954e-08 8.253853479597709e-07 2.2338196807379468e-08 4.495295689881813 -1.7720298975322548e-06 5.836375061250903e-06 -1.253017018862139e-05 41.78648576552642" Properties=species:S:1:pos:R:3:Z:I:1:forces:R:3 pbc="T T T"
W       0.00000412       0.00000167       0.12246396       74       0.00002629      -0.00004203       0.05636312 
W       0.00000344       2.24764737       1.53245867       74      -0.00013803       0.00003030      -0.00368912 
W       2.24764343       2.24764297       0.12246429       74       0.00002634       0.00000178       0.05648061 
W       2.24764655      -0.00000452       1.53247165       74       0.00002569       0.00000884      -0.00362332 
W       0.00000150      -0.00000118       3.16686416       74      -0.00001679      -0.00001234       0.04149828 
W       0.00000246       2.24764775       4.74325903       74       0.00000264      -0.00000212       0.02190231 
W       2.24764908       2.24764910       3.16686520       74       0.00003693      -0.00001990       0.04144795 
W       2.24764968      -0.00000224       4.74326985       74      -0.00000908       0.00000345       0.02186518 
W       0.00000051      -0.00000469       6.34062907       74       0.00002328       0.00001350       0.01035657 
W      -0.00000068       2.24764355       7.93626292       74       0.00005057       0.00006205       0.00256161 
W       2.24765096       2.24764601       6.34062899       74      -0.00003944       0.00005617       0.01015082 
W       2.24764652      -0.00000110       7.93627867       74       0.00006796      -0.00007116       0.00218403 
W       0.00000359       0.00000126       9.53329032       74      -0.00002249      -0.00007404      -0.08200256 
W       0.00000109       2.24763971      11.12443497       74       0.00000505       0.00003682      -0.04114410 
W       2.24765038       2.24764204       9.53329095       74      -0.00002508       0.00007021      -0.08184243 
W       2.24764999      -0.00000458      11.12444588       74       0.00001080      -0.00002318      -0.04128010 
W       0.00000440      -0.00000114      12.71415259       74      -0.00001415      -0.00005643      -0.00577705 
W       0.00000091       2.24764021      14.30397290       74       0.00002155       0.00004717      -0.00488927 
W       2.24765321       2.24764474      12.71416433       74       0.00000554      -0.00005687      -0.00593923 
W       2.24764878      -0.00000747      14.30397695       74      -0.00000969       0.00004702      -0.00479477 
W       0.00000324      -0.00000652      15.89319126       74      -0.00001696       0.00001620       0.00479937 
W       0.00000077       2.24764246      17.48299551       74       0.00010566      -0.00003383       0.00605737 
W       2.24765088       2.24764312      15.89319459       74      -0.00005049       0.00000001       0.00486605 
W       2.24765272      -0.00000628      17.48299780       74      -0.00002229       0.00002770       0.00614211 
W       0.00000136      -0.00000629      19.07273134       74       0.00004067      -0.00002715       0.04100213 
W       0.00000105       2.24763646      20.66388394       74       0.00001520       0.00003678       0.08159982 
W       2.24765341       2.24764029      19.07273178       74      -0.00009598      -0.00005727       0.04104977 
W       2.24765185      -0.00000884      20.66387662       74      -0.00000658       0.00001329       0.08194926 
W       0.00000108      -0.00000826      22.26089121       74       0.00007687       0.00000792      -0.00225267 
W       0.00000599       2.24763591      23.85653558       74      -0.00000787       0.00004105      -0.01033172 
W       2.24765405       2.24763936      22.26090301       74      -0.00001763      -0.00002987      -0.00255367 
W       2.24765412      -0.00001010      23.85652743       74      -0.00011769       0.00001970      -0.01010399 
W       0.00000648      -0.00000987      25.45390517       74       0.00002297      -0.00001161      -0.02188911 
W       0.00000532       2.24764044      27.03029322       74       0.00008402      -0.00001580      -0.04119556 
W       2.24764939       2.24763742      25.45389920       74       0.00002414       0.00004090      -0.02194368 
W       2.24765398      -0.00000611      27.03030031       74      -0.00002777      -0.00008108      -0.04146156 
W       0.00000249      -0.00001062      28.66470059       74      -0.00003219       0.00003343       0.00362499 
W       0.00000805       2.24763875      30.07470236       74      -0.00003372      -0.00001564      -0.05657020 
W       2.24765418       2.24763558      28.66469734       74      -0.00004185       0.00004661       0.00364345 
W       2.24765124      -0.00001389      30.07470120       74       0.00005521       0.00000375      -0.05649021 
40
Lattice="4.495295265122461 2.233814075761954e-08 8.253853479597709e-07 2.2338196807379468e-08 4.495295689881813 -1.7720298975322548e-06 5.836375061250903e-06 -1.253017018862139e-05 41.78648576552642" Properties=species:S:1:pos:R:3:Z:I:1:forces:R:3 pbc="T T T"
W       0.00000492       0.00000067       0.12756168       74       0.00000215       0.00001498       0.00268328 
W       0.00000109       2.24764884       1.53331608       74      -0.00003748      -0.00008023       0.02684814 
W       2.24764360       2.24764241       0.12756250       74      -0.00001821      -0.00000327       0.00258806 
W       2.24764667      -0.00000527       1.53333228       74       0.00004165       0.00008376       0.02677468 
W       0.00000121      -0.00000159       3.16754854       74      -0.00006044       0.00000229       0.04501969 
W       0.00000321       2.24764781       4.74281030       74       0.00000074       0.00000125       0.02217859 
W       2.24764961       2.24764906       3.16754961       74       0.00001896      -0.00005266       0.04498240 
W       2.24764981      -0.00000240       4.74282329       74       0.00007557       0.00003827       0.02215648 
W       0.00000079      -0.00000447       6.33911021       74      -0.00001913       0.00002076       0.02306205 
W      -0.00000024       2.24764421       7.93472536       74       0.00000786       0.00007971       0.00624326 
W       2.24765030       2.24764737       6.33910496       74      -0.00005230      -0.00008515       0.02306034 
W       2.24764723      -0.00000215       7.93473563       74       0.00002048       0.00003506       0.00588446 
W       0.00000380       0.00000098       9.53123274       74      -0.00004852      -0.00014725      -0.06403837 
W       0.00000094       2.24763949      11.12338505       74       0.00002658       0.00017181      -0.03963830 
W       2.24765022       2.24764338       9.53123738       74       0.00003145      -0.00002839      -0.06406703 
W       2.24765049      -0.00000495      11.12339508       74       0.00001709       0.00006498      -0.03975141 
W       0.00000422      -0.00000154      12.71397038       74       0.00000404      -0.00017168      -0.01668852 
W       0.00000111       2.24764066      14.30387495       74       0.00002247       0.00001120      -0.00722315 
W       2.24765355       2.24764376      12.71398188       74      -0.00008025      -0.00009522      -0.01681646 
W       2.24764854      -0.00000702      14.30388111       74       0.00002038       0.00011207      -0.00726617 
W       0.00000268      -0.00000605      15.89328722       74       0.00000130       0.00003893       0.00715225 
W       0.00000286       2.24764172      17.48318058       74      -0.00007019      -0.00000351       0.01699324 
W       2.24764979       2.24764347      15.89329268       74       0.00002129      -0.00006197       0.00713873 
W       2.24765253      -0.00000538      17.48318484       74      -0.00003608      -0.00007775       0.01702086 