2
Lattice="2.874898761162333 1.256575584812324e-17 -1.7872873181007117e-32 -1.4374493805811661 2.4897353604749926 -1.1545652989142892e-32 -1.5824406112673502e-32 -1.4711797337584423e-32 3.9997318229843675" Properties=species:S:1:pos:R:3:Z:I:1:forces:R:3 stress="2.4632216347511144e-06 2.117582368135751e-22 -4.287419971611061e-33 2.117582368135751e-22 2.463221634751112e-06 -1.5677580139540602e-32 -4.287419971611061e-33 -1.5677580139540602e-32 1.5710135210267276e-05" energy=-325.690425536 Minim_Constant_Volume=T Minim_Hydrostatic_Strain=F pbc="T T T"
Si       0.00000000      -0.00000000      -0.00000000       14       0.00000000      -0.00000000      -0.00000000 
Si      -0.00000000       1.65982357       1.99986591       14      -0.00000000       0.00000000       0.00000000 
2
Lattice="2.8561898460614783 5.473453040982144e-17 -1.708806810975928e-32 -1.4280949230307387 2.473532964720406 -8.346835007293392e-33 -1.493281951515751e-32 -9.248099936013576e-33 3.950951412845735" Properties=species:S:1:pos:R:3:Z:I:1:forces:R:3 stress="-0.087361137175361 3.469446951953614e-17 -2.1839032073513545e-33 3.469446951953614e-17 -0.08736113717536095 -4.3278199730677235e-33 -2.1839032073513545e-33 -4.3278199730677235e-33 -0.08739261900780071" energy=-325.659476958 Minim_Constant_Volume=T Minim_Hydrostatic_Strain=F pbc="T T T"
Si       0.00000000      -0.00000000      -0.00000000       14       0.00000000      -0.00000000      -0.00000000 
Si       0.00000000       1.64902198       1.97547571       14      -0.00000000       0.00000000      -0.00000000 
2
Lattice="2.847816864219997 1.5333731115295377e-16 -8.982245048861048e-33 -1.423908432109998 2.466281749740257 -9.925381539533426e-34 -4.1488106055266105e-33 8.460332637912682e-33 3.871974167133512" Properties=species:S:1:pos:R:3:Z:I:1:forces:R:3 stress="-0.16319928872490633 5.551115123125783e-17 -2.227620547380215e-33 5.551115123125783e-17 -0.1631992887249062 2.437941375090822e-33 -2.227620547380215e-33 2.437941375090822e-33 -0.16320123297462183" energy=-325.567439193 Minim_Constant_Volume=T Minim_Hydrostatic_Strain=F pbc="T T T"
Si       0.00000000      -0.00000000      -0.00000000       14       0.00000000      -0.00000000      -0.00000000 
Si       0.00000000       1.64418783       1.93598708       14      -0.00000000       0.00000000       0.00000000 
2
Lattice="2.864707632473237 3.800429254297222e-17 -9.032165684535814e-33 -1.4323538162366178 2.4809095841369975 -6.812261536426132e-33 -4.709203371409661e-33 -9.952846250566584e-34 3.723622841622359" Properties=species:S:1:pos:R:3:Z:I:1:forces:R:3 stress="-0.16913642041238772 2.7755575615628914e-17 -1.3721402832289956e-33 2.7755575615628914e-17 -0.16913642041238786 -8.417420557635041e-34 -1.3721402832289956e-33 -8.417420557635041e-34 -0.16932771494526336" energy=-325.440362268 Minim_Constant_Volume=T Minim_Hydrostatic_Strain=F pbc="T T T"
Si       0.00000000      -0.00000000      -0.00000000       14       0.00000000      -0.00000000      -0.00000000 
Si       0.00000000       1.65393972       1.86181142       14      -0.00000000       0.00000000       0.00000000 
2
Lattice="2.869905552146708 3.807325010696452e-17 -6.587765955346554e-33 -1.4349527760733534 2.485411114621055 -4.2717602974237565e-33 -1.89545625638822e-33 4.136251910773676e-33 3.6110272799284746" Properties=species:S:1:pos:R:3:Z:I:1:forces:R:3 stress="-0.18129042440489918 2.566822544471271e-65 2.1257503923291887e-33 2.566822544471271e-65 -0.18129042440489931 -3.718738335738865e-33 2.1257503923291887e-33 -3.718738335738865e-33 -0.1812863844803254" energy=-325.32003285 Minim_Constant_Volume=T Minim_Hydrostatic_Strain=F pbc="T T T"
Si       0.00000000      -0.00000000      -0.00000000       14      -0.00000000      -0.00000000       0.00000000 
Si       0.00000000       1.65694074       1.80551364       14      -0.00000000      -0.00000000       0.00000000 
2
Lattice="2.854055582688765 6.237222816545636e-17 -8.236736483737541e-33 -1.4270277913443818 2.471684638421269 -4.521728105707422e-33 -4.097761140265682e-33 2.369379071184248e-33 3.55092004806893" Properties=species:S:1:pos:R:3:Z:I:1:forces:R:3 stress="-0.2289648279051995 8.326672684688674e-17 1.4183200029830341e-33 8.326672684688674e-17 -0.2289648279051995 6.116720246693406e-33 1.4183200029830341e-33 6.116720246693406e-33 -0.22890280964020512" energy=-325.175800034 Minim_Constant_Volume=T Minim_Hydrostatic_Strain=F pbc="T T T"
Si       0.00000000      -0.00000000      -0.00000000       14       0.00000000      -0.00000000      -0.00000000 
Si       0.00000000       1.64778976       1.77546002       14       0.00000000       0.00000000      -0.00000000 
2
Lattice="2.9008003333494012 1.0054013952796807e-16 -1.5518348506867095e-32 -1.4504001666747002 2.51216677998695 1.9329327829740636e-32 -1.2522745231724827e-32 3.687016278745734e-32 4.026831579223747" Properties=species:S:1:pos:R:3:Z:I:1:forces:R:3 stress="0.06972314622657708 -2.7755575615628914e-17 3.2416642060891608e-34 -2.7755575615628914e-17 0.06972314622657698 6.396621640146903e-33 3.2416642060891608e-34 6.396621640146903e-33 0.06972287198245854" energy=-325.663745612 Minim_Constant_Volume=T Minim_Hydrostatic_Strain=F pbc="T T T"
Si       0.00000000      -0.00000000      -0.00000000       14       0.00000000      -0.00000000      -0.00000000 
Si      -0.00000000       1.67477785       2.01341579       14      -0.00000000       0.00000000       0.00000000 
2
Lattice="2.9351394001173157 3.329901350346846e-16 -5.274343706100762e-32 -1.4675697000586572 2.5419052841502134 4.39088947808547e-33 -6.433487572657961e-32 -1.6482963356103968e-32 4.0289282007045335" Properties=species:S:1:pos:R:3:Z:I:1:forces:R:3 stress="0.11563533140480424 -1.3877787807814457e-17 1.2470283499252315e-32 -1.3877787807814457e-17 0.11563533140480423 2.5137211901916735e-32 1.2470283499252315e-32 2.5137211901916735e-32 0.11569601686444625" energy=-325.596238481 Minim_Constant_Volume=T Minim_Hydrostatic_Strain=F pbc="T T T"
Si       0.00000000      -0.00000000       0.00000000       14      -0.00000000       0.00000000       0.00000000 
Si      -0.00000000       1.69460352       2.01446410       14      -0.00000000       0.00000000       0.00000000 
2
Lattice="2.9814392303791304 9.519067631800832e-16 -2.068682417553918e-31 -1.490719615189564 2.5820021133478512 -2.3146434855332706e-31 -2.7748033522770553e-31 -5.1299310301778295e-31 3.9971674671636284" Properties=species:S:1:pos:R:3:Z:I:1:forces:R:3 stress="0.13732214739976906 -1.6653345369377348e-16 2.6610693644501066e-32 -1.6653345369377348e-16 0.1373221473997691 4.767616686258171e-32 2.6610693644501066e-32 4.767616686258171e-32 0.13730642366339194" energy=-325.504691625 Minim_Constant_Volume=T Minim_Hydrostatic_Strain=F pbc="T T T"
Si       0.00000000      -0.00000000       0.00000000       14       0.00000000       0.00000000       0.00000000 
Si      -0.00000000       1.72133474       1.99858373       14       0.00000000       0.00000000       0.00000000 
2
Lattice="3.041300477212788 2.3027176680253113e-15 -4.354701741951053e-31 -1.5206502386063918 2.6338434738080077 -5.374413069194662e-31 -5.942194256028898e-31 -1.1826780629876547e-30 3.9296470802577512" Properties=species:S:1:pos:R:3:Z:I:1:forces:R:3 stress="0.1297436256872679 -1.942890293094024e-16 3.79728781534159e-32 -1.942890293094024e-16 0.12974362568726805 8.195429820879777e-32 3.79728781534159e-32 8.195429820879777e-32 0.12974164552507214" energy=-325.407672611 Minim_Constant_Volume=T Minim_Hydrostatic_Strain=F pbc="T T T"
Si       0.00000000      -0.00000000       0.00000000       14       0.00000000      -0.00000000      -0.00000000 
Si      -0.00000000       1.75589565       1.96482354       14      -0.00000000       0.00000000       0.00000000 
2
Lattice="3.176040217084911 4.182931240312736e-15 -8.921773205948093e-31 -1.5880201085424515 2.75053151143657 -9.894116318239197e-31 -1.2475615012842222e-30 -2.324010615437302e-30 3.6718873116463695" Properties=species:S:1:pos:R:3:Z:I:1:forces:R:3 stress="0.035153701870965975 -9.367506770274758e-17 1.510511728034628e-32 -9.367506770274758e-17 0.035153701870966066 2.4456461816811552e-32 1.510511728034628e-32 2.4456461816811552e-32 0.03520016865337315" energy=-325.350426821 Minim_Constant_Volume=T Minim_Hydrostatic_Strain=F pbc="T T T"
Si       0.00000000      -0.00000000       0.00000000       14      -0.00000000       0.00000000      -0.00000000 
Si       0.00000000       1.83368767       1.83594366       14       0.00000000      -0.00000000       0.00000000 
2
Lattice="3.2679220919365393 5.124777370176684e-15 -9.924556911755634e-31 -1.633961045968265 2.830103549205422 -1.0334604168808608e-30 -1.4322823995140963e-30 -2.5777266223042566e-30 3.5554958354024464" Properties=species:S:1:pos:R:3:Z:I:1:forces:R:3 stress="0.010406108383310029 -2.862293735361732e-17 4.295465114653953e-33 -2.862293735361732e-17 0.010406108383310063 4.380906051109487e-33 4.295465114653953e-33 4.380906051109487e-33 0.010298661944005109" energy=-325.337885918 Minim_Constant_Volume=T Minim_Hydrostatic_Strain=F pbc="T T T"
Si       0.00000000      -0.00000000       0.00000000       14      -0.00000000       0.00000000      -0.00000000 
Si       0.00000000       1.88673570       1.77774792       14       0.00000000      -0.00000000       0.00000000 
