2
Lattice="3.279260595819508 5.736714671441052e-36 5.238810992243487e-36 5.736714671441052e-36 3.279260595819508 -1.500342183193485e-18 5.238810992243488e-36 -1.5003421831934842e-18 3.279260595819508" Properties=species:S:1:pos:R:3:Z:I:1:forces:R:3 stress="1.0665047966596571e-05 -1.9103693789025553e-34 -2.149165551265375e-34 -1.9103693789025553e-34 1.0665047966596593e-05 2.9121265023900194e-21 -2.149165551265375e-34 2.9121265023900194e-21 1.0665047966596587e-05" energy=-12.00217758 Minim_Constant_Volume=T Minim_Hydrostatic_Strain=F pbc="T T T"
Ti      -0.00000000       0.00000000      -0.00000000       22       0.00000000       0.00000000       0.00000000 
Ti       1.63963030       1.63963030       1.63963030       22       0.00000000       0.00000000       0.00000000 
2
Lattice="3.251702481190263 5.6885047058432025e-36 5.194785289001347e-36 5.6885047058432025e-36 3.251702481190263 -1.4877336695790907e-18 5.194785289001348e-36 -1.48773366957909e-18 3.251702481190263" Properties=species:S:1:pos:R:3:Z:I:1:forces:R:3 stress="-0.016742261511591573 9.714436388161763e-35 -2.707330896761754e-50 9.714436388161763e-35 -0.01674226151159157 4.047423845919082e-18 -2.707330896761754e-50 4.047423845919082e-18 -0.016742261511591586" energy=-11.9946855867 Minim_Constant_Volume=T Minim_Hydrostatic_Strain=F pbc="T T T"
Ti      -0.00000000       0.00000000      -0.00000000       22       0.00000000       0.00000000       0.00000000 
Ti       1.62585124       1.62585124       1.62585124       22       0.00000000       0.00000000       0.00000000 
2
Lattice="3.223669168287589 5.639463431836835e-36 5.1500004286670524e-36 5.639463431836835e-36 3.223669168287589 -1.4749077410950406e-18 5.150000428667054e-36 -1.4749077410950398e-18 3.223669168287589" Properties=species:S:1:pos:R:3:Z:I:1:forces:R:3 stress="-0.03409639170355335 1.2355157766397125e-35 -1.2355157766397125e-35 1.2355157766397125e-35 -0.03409639170355335 -3.0874109600344594e-18 -1.2355157766397125e-35 -3.0874109600344594e-18 -0.034096391703553365" energy=-11.9723642508 Minim_Constant_Volume=T Minim_Hydrostatic_Strain=F pbc="T T T"
Ti      -0.00000000       0.00000000      -0.00000000       22      -0.00000000      -0.00000000      -0.00000000 
Ti       1.61183458       1.61183458       1.61183458       22      -0.00000000      -0.00000000      -0.00000000 
2
Lattice="3.1951396263403957 5.589554058343737e-36 5.104422813351221e-36 5.589554058343737e-36 3.1951396263403957 -1.4618547756475463e-18 5.1044228133512224e-36 -1.4618547756475456e-18 3.1951396263403957" Properties=species:S:1:pos:R:3:Z:I:1:forces:R:3 stress="-0.05249115626014069 1.5092138769710874e-34 -3.018427753942175e-34 1.5092138769710874e-34 -0.05249115626014066 -5.106097190174701e-18 -3.018427753942175e-34 -5.106097190174701e-18 -0.052491156260140684" energy=-11.9342603059 Minim_Constant_Volume=T Minim_Hydrostatic_Strain=F pbc="T T T"
Ti      -0.00000000       0.00000000      -0.00000000       22      -0.00000000      -0.00000000      -0.00000000 
Ti       1.59756981       1.59756981       1.59756981       22       0.00000000       0.00000000       0.00000000 
2
Lattice="3.1660912946192674 5.538737117787709e-36 5.0580164009663724e-36 5.538737117787709e-36 3.1660912946192674 -1.4485644511493448e-18 5.058016400966374e-36 -1.448564451149344e-18 3.1660912946192674" Properties=species:S:1:pos:R:3:Z:I:1:forces:R:3 stress="-0.0708464571150693 5.1243780517502075e-39 -1.8424627141010328e-53 5.1243780517502075e-39 -0.07084645711506929 4.848426210997771e-18 -1.8424627141010328e-53 4.848426210997771e-18 -0.0708464571150693" energy=-11.8798090345 Minim_Constant_Volume=T Minim_Hydrostatic_Strain=F pbc="T T T"
Ti      -0.00000000       0.00000000      -0.00000000       22       0.00000000       0.00000000       0.00000000 
Ti       1.58304565       1.58304565       1.58304565       22       0.00000000       0.00000000       0.00000000 
2
Lattice="3.13649992508995 5.486970190833725e-36 5.010742453856664e-36 5.486970190833725e-36 3.13649992508995 -1.4350256735298108e-18 5.0107424538566645e-36 -1.4350256735298103e-18 3.13649992508995" Properties=species:S:1:pos:R:3:Z:I:1:forces:R:3 stress="-0.08991832408885025 -1.2251605821253831e-52 1.0196442956239453e-36 -1.2251605821253831e-52 -0.08991832408885023 -1.1027471312452332e-19 1.0196442956239453e-36 -1.1027471312452332e-19 -0.08991832408885025" energy=-11.8090123882 Minim_Constant_Volume=T Minim_Hydrostatic_Strain=F pbc="T T T"
Ti      -0.00000000       0.00000000      -0.00000000       22       0.00000000       0.00000000       0.00000000 
Ti       1.56824996       1.56824996       1.56824996       22       0.00000000       0.00000000       0.00000000 
2
Lattice="3.30636315212172 5.78412768660998e-36 5.282108914358897e-36 5.78412768660998e-36 3.30636315212172 -1.51274226769559e-18 5.282108914358898e-36 -1.5127422676955892e-18 3.30636315212172" Properties=species:S:1:pos:R:3:Z:I:1:forces:R:3 stress="0.015173805961426944 5.872433754855156e-36 5.505406645176707e-36 5.872433754855156e-36 0.015173805961426944 1.985014642544172e-18 5.505406645176707e-36 1.985014642544172e-18 0.015173805961426945" energy=-11.9952044264 Minim_Constant_Volume=T Minim_Hydrostatic_Strain=F pbc="T T T"
Ti      -0.00000000       0.00000000      -0.00000000       22       0.00000000       0.00000000       0.00000000 
Ti       1.65318158       1.65318158       1.65318158       22       0.00000000       0.00000000       0.00000000 
2
Lattice="3.3330285226374534 5.830775892139005e-36 5.324708406557888e-36 5.830775892139005e-36 3.3330285226374534 -1.5249423289735018e-18 5.3247084065578894e-36 -1.5249423289735008e-18 3.3330285226374534" Properties=species:S:1:pos:R:3:Z:I:1:forces:R:3 stress="0.027905096331815375 -7.223558321753019e-37 -9.029447902191274e-37 -7.223558321753019e-37 0.027905096331815385 1.6575930337930996e-72 -9.029447902191274e-37 1.6575930337930996e-72 0.027905096331815375" energy=-11.9761289926 Minim_Constant_Volume=T Minim_Hydrostatic_Strain=F pbc="T T T"
Ti      -0.00000000       0.00000000      -0.00000000       22       0.00000000      -0.00000000      -0.00000000 
Ti       1.66651426       1.66651426       1.66651426       22      -0.00000000      -0.00000000       0.00000000 
2
Lattice="3.359273922309974 5.8766894037248555e-36 5.366636970721256e-36 5.8766894037248555e-36 3.359273922309974 -1.5369502432861531e-18 5.3666369707212575e-36 -1.5369502432861524e-18 3.359273922309974" Properties=species:S:1:pos:R:3:Z:I:1:forces:R:3 stress="0.04022528546559744 -3.772100507579149e-39 -1.3565861465137434e-53 -3.772100507579149e-39 0.040225285465597414 1.0879653943816018e-18 -1.3565861465137434e-53 1.0879653943816018e-18 0.04022528546559744" energy=-11.9461077893 Minim_Constant_Volume=T Minim_Hydrostatic_Strain=F pbc="T T T"
Ti      -0.00000000       0.00000000      -0.00000000       22       0.00000000       0.00000000       0.00000000 
Ti       1.67963696       1.67963696       1.67963696       22       0.00000000       0.00000000       0.00000000 
2
Lattice="3.385115506464077 5.921896483375405e-36 5.4079204159271926e-36 5.921896483375405e-36 3.385115506464077 -1.5487734020910287e-18 5.407920415927194e-36 -1.548773402091028e-18 3.385115506464077" Properties=species:S:1:pos:R:3:Z:I:1:forces:R:3 stress="0.05266464162651626 1.0504454845620582e-36 4.376856185675246e-37 1.0504454845620582e-36 0.05266464162651626 1.484445025337292e-17 4.376856185675246e-37 1.484445025337292e-17 0.05266464162651623" energy=-11.9051555112 Minim_Constant_Volume=T Minim_Hydrostatic_Strain=F pbc="T T T"
Ti      -0.00000000       0.00000000      -0.00000000       22      -0.00000000      -0.00000000      -0.00000000 
Ti       1.69255775       1.69255775       1.69255775       22       0.00000000      -0.00000000      -0.00000000 
2
Lattice="3.4105684584678535 5.966423692764526e-36 5.4485829984960856e-36 5.966423692764526e-36 3.4105684584678535 -1.5604187521515722e-18 5.448582998496087e-36 -1.5604187521515714e-18 3.4105684584678535" Properties=species:S:1:pos:R:3:Z:I:1:forces:R:3 stress="0.06440474526260377 -2.7595336396589717e-35 -1.1038134558635884e-35 -2.7595336396589717e-35 0.06440474526260376 -5.608193965173968e-18 -1.1038134558635884e-35 -5.608193965173968e-18 0.06440474526260376" energy=-11.8534490695 Minim_Constant_Volume=T Minim_Hydrostatic_Strain=F pbc="T T T"
Ti      -0.00000000       0.00000000      -0.00000000       22      -0.00000000       0.00000000       0.00000000 
Ti       1.70528423       1.70528423       1.70528423       22       0.00000000       0.00000000      -0.00000000 
2
Lattice="3.4356470683675298 6.010296030795309e-36 5.488647547614293e-36 6.010296030795309e-36 3.4356470683675298 -1.571892831514556e-18 5.4886475476142944e-36 -1.5718928315145552e-18 3.4356470683675298" Properties=species:S:1:pos:R:3:Z:I:1:forces:R:3 stress="0.07395755144310882 -7.556215567472044e-53 -4.18028893938986e-53 -7.556215567472044e-53 0.07395755144310878 -2.115741288825835e-17 -4.18028893938986e-53 -2.115741288825835e-17 0.07395755144310878" energy=-11.7922425958 Minim_Constant_Volume=T Minim_Hydrostatic_Strain=F pbc="T T T"
Ti      -0.00000000       0.00000000      -0.00000000       22       0.00000000       0.00000000       0.00000000 
Ti       1.71782353       1.71782353       1.71782353       22       0.00000000       0.00000000       0.00000000 
