2
Lattice="2.9471429246982943 2.8862390782726725e-18 5.95250188283681e-34 -1.4735714623491465 2.5523006413722924 6.028310862050566e-35 9.59778801160893e-34 6.830399831852061e-34 4.775427829282378" Properties=species:S:1:pos:R:3:Z:I:1:forces:R:3 stress="0.0006635944009443607 -1.6263032587282567e-19 -1.3257997744107676e-36 -1.6263032587282567e-19 0.0006635944009443611 -3.239520244570287e-36 -1.3257997744107676e-36 -3.239520244570287e-36 0.0006721430128911967" energy=-12.140649205 Minim_Constant_Volume=T Minim_Hydrostatic_Strain=F pbc="T T T"
Ti      -0.00000000       0.00000000      -0.00000000       22      -0.00000000       0.00000000      -0.00000000 
Ti       0.00000000       1.70153376       2.38771391       22       0.00000000      -0.00000000       0.00000000 
2
Lattice="2.922375846823745 2.861983821624926e-18 5.90247849359256e-34 -1.4611879234118719 2.530851722755425 5.977650392440771e-35 9.517130517493246e-34 6.7729988001165175e-34 4.735296286308691" Properties=species:S:1:pos:R:3:Z:I:1:forces:R:3 stress="-0.015183472101949803 5.204170427930421e-18 3.0405938098252603e-31 5.204170427930421e-18 -0.01518347210194979 5.266673334458412e-31 3.0405938098252603e-31 5.266673334458412e-31 -0.01504075909132201" energy=-12.1342864501 Minim_Constant_Volume=T Minim_Hydrostatic_Strain=F pbc="T T T"
Ti      -0.00000000       0.00000000      -0.00000000       22      -0.00000000       0.00000000      -0.00000000 
Ti       0.00000000       1.68723448       2.36764814       22       0.00000000      -0.00000000       0.00000000 
2
Lattice="2.8971816979103306 2.8373103195262242e-18 5.851592526174158e-34 -1.4485908489551647 2.50903294976968 5.926116359163303e-35 9.435082206100742e-34 6.714607973848919e-34 4.694472735184675" Properties=species:S:1:pos:R:3:Z:I:1:forces:R:3 stress="-0.033100546164945725 6.938893903907228e-18 7.740037833310935e-32 6.938893903907228e-18 -0.03310054616494569 1.3410766687286351e-31 7.740037833310935e-32 1.3410766687286351e-31 -0.03304942020663774" energy=-12.1128249724 Minim_Constant_Volume=T Minim_Hydrostatic_Strain=F pbc="T T T"
Ti      -0.00000000       0.00000000      -0.00000000       22      -0.00000000      -0.00000000      -0.00000000 
Ti       0.00000000       1.67268863       2.34723637       22       0.00000000       0.00000000       0.00000000 
2
Lattice="2.87154157714599 2.812200061757084e-18 5.799805805602563e-34 -1.4357707885729942 2.48682795383166 5.873670101055957e-35 9.351581524262114e-34 6.655183547876992e-34 4.652926549820513" Properties=species:S:1:pos:R:3:Z:I:1:forces:R:3 stress="-0.05374562223383798 3.469446951953614e-18 1.0642591324647154e-34 3.469446951953614e-18 -0.0537456222338379 4.5710211960428695e-32 1.0642591324647154e-34 4.5710211960428695e-32 -0.05390090070576029" energy=-12.0740492676 Minim_Constant_Volume=T Minim_Hydrostatic_Strain=F pbc="T T T"
Ti      -0.00000000       0.00000000      -0.00000000       22      -0.00000000       0.00000000       0.00000000 
Ti       0.00000000       1.65788530       2.32646327       22       0.00000000      -0.00000000      -0.00000000 
2
Lattice="2.845972297224403 -1.7612255634745696e-16 1.7217388758155215e-31 -1.422986148612201 2.4646843078630902 3.4351368301515722e-31 2.78979357248028e-31 8.038084055983627e-31 4.6088843243436886" Properties=species:S:1:pos:R:3:Z:I:1:forces:R:3 stress="-0.07843196884714261 -3.989137150976548e-63 1.5162751240978452e-32 -3.989137150976548e-63 -0.07843196884714262 -1.4146924801410367e-31 1.5162751240978452e-32 -1.4146924801410367e-31 -0.07843002146097897" energy=-12.0150304283 Minim_Constant_Volume=T Minim_Hydrostatic_Strain=F pbc="T T T"
Ti       0.00000000      -0.00000000       0.00000000       22       0.00000000       0.00000000       0.00000000 
Ti       0.00000000       1.64312287       2.30444216       22       0.00000000      -0.00000000       0.00000000 
2
Lattice="2.8210809046229093 -2.03008798854445e-16 8.917207177149991e-32 -1.4105404523114542 2.4431277295346248 1.0394924447209213e-32 1.450634538704212e-31 1.0472329279751442e-31 4.560276481220136" Properties=species:S:1:pos:R:3:Z:I:1:forces:R:3 stress="-0.10295571751249592 6.938893903907228e-18 3.1614699724185817e-32 6.938893903907228e-18 -0.10295571751249583 -3.005222266529853e-31 3.1614699724185817e-32 -3.005222266529853e-31 -0.10284788409986687" energy=-11.9330584346 Minim_Constant_Volume=T Minim_Hydrostatic_Strain=F pbc="T T T"
Ti       0.00000000      -0.00000000       0.00000000       22      -0.00000000       0.00000000      -0.00000000 
Ti       0.00000000       1.62875182       2.28013824       22      -0.00000000       0.00000000       0.00000000 
2
Lattice="2.9719892930460743 3.392268533138981e-17 8.974406480182932e-34 -1.4859946465230363 2.5738182275532555 1.2197036744832519e-34 1.449875519131764e-33 1.0816081021455022e-33 4.813312191932732" Properties=species:S:1:pos:R:3:Z:I:1:forces:R:3 stress="0.015327495637682912 -1.734723475976807e-17 -4.4757855765474056e-35 -1.734723475976807e-17 0.015327495637682905 -1.0935180438908675e-34 -4.4757855765474056e-35 -1.0935180438908675e-34 0.015337873759109607" energy=-12.1334591512 Minim_Constant_Volume=T Minim_Hydrostatic_Strain=F pbc="T T T"
Ti      -0.00000000      -0.00000000       0.00000000       22      -0.00000000       0.00000000       0.00000000 
Ti       0.00000000       1.71587882       2.40665610       22      -0.00000000      -0.00000000      -0.00000000 
2
Lattice="2.9955980723427507 1.431619259643452e-16 1.3425877083367019e-33 -1.4977990361713744 2.5942640301765176 8.99422905050883e-35 2.1702608498258688e-33 1.4376744626687964e-33 4.853297091392492" Properties=species:S:1:pos:R:3:Z:I:1:forces:R:3 stress="0.028757923173391483 -3.469446951953614e-18 1.5466545828966116e-34 -3.469446951953614e-18 0.028757923173391466 -4.751142072220002e-34 1.5466545828966116e-34 -4.751142072220002e-34 0.028760335137395836" energy=-12.1135404842 Minim_Constant_Volume=T Minim_Hydrostatic_Strain=F pbc="T T T"
Ti      -0.00000000       0.00000000       0.00000000       22       0.00000000      -0.00000000       0.00000000 
Ti       0.00000000       1.72950935       2.42664855       22      -0.00000000       0.00000000       0.00000000 
2
Lattice="3.017264137341111 1.8407843639188732e-16 1.6397409603872154e-30 -1.5086320686705545 2.6130273928651424 8.204273161005542e-31 2.6566056068692865e-30 3.0686471289103526e-30 4.897742592047611" Properties=species:S:1:pos:R:3:Z:I:1:forces:R:3 stress="0.04087074956224607 2.1846004161468408e-60 -2.24275746720425e-31 2.1846004161468408e-60 0.04087074956224603 -4.061677847590953e-31 -2.24275746720425e-31 -4.061677847590953e-31 0.04090985970340847" energy=-12.0821930462 Minim_Constant_Volume=T Minim_Hydrostatic_Strain=F pbc="T T T"
Ti      -0.00000000       0.00000000       0.00000000       22       0.00000000      -0.00000000       0.00000000 
Ti       0.00000000       1.74201826       2.44887130       22      -0.00000000       0.00000000      -0.00000000 
2
Lattice="3.038669755116606 3.116802543376126e-16 3.20725302238027e-30 -1.5193348775583022 2.631565201642421 3.313214726982486e-30 5.196236976085558e-30 9.204491682286187e-30 4.941284970444392" Properties=species:S:1:pos:R:3:Z:I:1:forces:R:3 stress="0.052127043397719335 -2.42861286636753e-17 -2.966337061477288e-31 -2.42861286636753e-17 0.05212704339771929 -8.145816711713027e-31 -2.966337061477288e-31 -8.145816711713027e-31 0.052162383626279764" energy=-12.0403653568 Minim_Constant_Volume=T Minim_Hydrostatic_Strain=F pbc="T T T"
Ti      -0.00000000       0.00000000       0.00000000       22       0.00000000      -0.00000000      -0.00000000 
Ti       0.00000000       1.75437680       2.47064249       22      -0.00000000       0.00000000       0.00000000 
2
Lattice="3.060274292603084 4.935827715072324e-16 6.0691067890584405e-30 -1.530137146301541 2.6502752799427243 8.184951601565529e-30 9.843450784078921e-30 2.1027449588954173e-29 4.982488223384878" Properties=species:S:1:pos:R:3:Z:I:1:forces:R:3 stress="0.06260604549120913 1.3877787807814457e-17 -6.933150746907532e-31 1.3877787807814457e-17 0.06260604549120907 -1.894836525766055e-30 -6.933150746907532e-31 -1.894836525766055e-30 0.06262294006331945" energy=-11.9887786846 Minim_Constant_Volume=T Minim_Hydrostatic_Strain=F pbc="T T T"
Ti      -0.00000000       0.00000000       0.00000000       22       0.00000000      -0.00000000       0.00000000 
Ti       0.00000000       1.76685019       2.49124411       22      -0.00000000       0.00000000       0.00000000 
2
Lattice="3.0823666290574954 4.484075257226002e-16 1.2683374125951292e-29 -1.5411833145287466 2.6694078045411977 1.625660730999729e-29 2.0608005853114173e-29 4.24104796278426e-29 5.020464617261965" Properties=species:S:1:pos:R:3:Z:I:1:forces:R:3 stress="0.07226331985741735 -4.85722573273506e-17 -1.1922094555619269e-30 -4.85722573273506e-17 0.07226331985741725 -3.890952168358912e-30 -1.1922094555619269e-30 -3.890952168358912e-30 0.07226489988258113" energy=-11.9281558911 Minim_Constant_Volume=T Minim_Hydrostatic_Strain=F pbc="T T T"
Ti      -0.00000000       0.00000000       0.00000000       22      -0.00000000       0.00000000       0.00000000 
Ti       0.00000000       1.77960520       2.51023231       22       0.00000000      -0.00000000      -0.00000000 
