53
Lattice="9.837389021615948 3.852938582060323e-34 -3.2718484537229836e-16 -8.511751850881662e-35 9.837389021615937 -6.699742640608712e-17 -3.271848453722983e-16 -6.699742640608705e-17 9.837389021615898" Properties=species:S:1:pos:R:3:Z:I:1:forces:R:3 energy=-319.915269245 pbc="T T T"
Ti       1.68379180       1.36504674       1.52831375       22      -0.00012363      -0.00057215      -0.00003688 
Ti      -0.22466197       0.02243348       3.44994324       22       0.00072163       0.00007006       0.00003655 
Ti       2.05796592       1.22825631       4.49706729       22       0.00004225       0.00048406      -0.00007865 
Ti       0.22465447      -0.02412995       6.38475686       22      -0.00033504      -0.00017847      -0.00015000 
Ti       1.52947890       1.68269956       8.47048710       22       0.00031129       0.00026625      -0.00014431 
Ti      -0.02320346       3.45043934       0.22314443       22      -0.00031508       0.00030204       0.00000489 
Ti       1.22916674       5.33795214       2.05663251       22       0.00010278       0.00043110      -0.00026691 
Ti       0.06406748       3.04380885       3.19109399       22       0.00013745      -0.00013853       0.00003593 
Ti       1.59997127       5.14398488       5.00144298       22       0.00051453       0.00004178       0.00005025 
Ti       0.41386194       2.87300990       6.16069651       22      -0.00040515       0.00006223      -0.00034465 
Ti       1.67158600       4.73733918       7.99287923       22       0.00005139      -0.00008484       0.00049971 
Ti       0.02325944       6.38516015      -0.22592288       22       0.00026503       0.00009067       0.00028631 
Ti       1.36572516       8.30706161       1.68236051       22      -0.00031853      -0.00022813      -0.00001167 
Ti      -0.41373345       6.96254339       3.67408921       22       0.00021043       0.00021719       0.00010281 
Ti       1.84309253       8.16501028       4.73674804       22      -0.00029296      -0.00011011       0.00000132 
Ti      -0.06414575       6.79192587       6.64355905       22      -0.00007351      -0.00030440       0.00020405 
Ti       1.19072889       8.64576171       8.64536475       22      -0.00012580       0.00004841      -0.00012021 
Ti       3.45125657      -0.22545772      -0.02459567       22       0.00037339       0.00025558      -0.00025733 
Ti       4.73811460       1.84216858       1.67026808       22       0.00007551       0.00034610      -0.00027897 
Ti       3.67545906      -0.41463192       2.87256226       22       0.00017022       0.00019843       0.00008115 
Ti       5.00277407       1.59923572       4.69122473       22       0.00021950      -0.00003478      -0.00002536 
Ti       3.19243825       0.06331521       6.79138065       22      -0.00005201       0.00020356      -0.00003783 
Ti       4.49849586       2.05707880       8.60691874       22      -0.00024090      -0.00014312       0.00006551 
Ti       2.87398708       3.67468335       0.41236310       22       0.00007697      -0.00011223      -0.00002308 
Ti       5.14493930       4.83380099       1.59878281       22      -0.00016410      -0.00027347       0.00000198 
Ti       3.10409083       3.47543884       3.29337369       22      -0.00059106      -0.00009650       0.00002407 
Ti       4.91837969       4.91828838       4.91783091       22       0.00031383      -0.00045925      -0.00051532 
Ti       3.29459884       3.10292394       6.35986163       22       0.00009725       0.00039567      -0.00000454 
Ti       4.69260138       5.00200931       8.23597592       22      -0.00015036      -0.00010124      -0.00017079 
Ti       3.04466013       6.64411089       0.06272759       22      -0.00010409       0.00001947       0.00040185 
Ti       5.33887414       7.77854102       1.22774447       22       0.00037127       0.00021333       0.00029259 
Ti       3.47621782       6.54193562       3.10246156       22      -0.00016252      -0.00008692       0.00037143 
Ti       4.83467173       8.23654367       5.14354547       22      -0.00010377      -0.00033372      -0.00022450 
Ti       2.93052289       6.90611950       6.90547989       22       0.00023856      -0.00064740      -0.00016336 
Ti       5.09925861       7.99345845       8.16447962       22       0.00005917       0.00011869       0.00009433 
Ti       6.38603430       0.22371716       0.02195194       22       0.00011139      -0.00018468      -0.00010318 
Ti       8.64666414       1.18987926       1.18930324       22       0.00017038      -0.00001733       0.00024815 
Ti       6.64493003      -0.06486419       3.04327133       22       0.00020642      -0.00029694       0.00029610 
Ti       7.99446928       1.67079603       5.09793120       22      -0.00062355      -0.00027406      -0.00006938 
Ti       6.16200623       0.41281808       6.96212055       22      -0.00036533       0.00018536      -0.00014729 
Ti       8.47157882       1.52875475       8.15228999       22       0.00038613       0.00000071       0.00005871 
Ti       6.79266991       3.19159011      -0.06541682       22       0.00027901      -0.00014535      -0.00012254 
Ti       8.16587478       5.09826541       1.84172881       22      -0.00018436       0.00024197      -0.00001523 
Ti       6.90663426       2.92978565       2.92939529       22       0.00026338       0.00012985      -0.00018158 
Ti       8.23723427       4.69165191       4.83317253       22      -0.00009899       0.00008712       0.00042300 
Ti       6.36111905       3.29370623       6.73213821       22       0.00022378       0.00035524       0.00007830 
Ti       8.60825747       4.49761423       7.77801461       22      -0.00009470      -0.00023576       0.00007445 
Ti       6.96356660       6.16109801      -0.41503713       22      -0.00035587      -0.00011874      -0.00007398 
Ti       8.30782632       8.15283365       1.36448758       22      -0.00009838      -0.00005807      -0.00051203 
Ti       6.54270444       6.73260348       3.47479288       22       0.00021931       0.00009364       0.00031699 
Ti       7.77951839       8.60742853       5.33746689       22      -0.00026510       0.00000112       0.00029534 
Ti       6.73372567       6.36040020       6.54150564       22      -0.00045174       0.00009851      -0.00018638 
Ti       8.15375456       8.47084492       8.30656706       22      -0.00011573       0.00027804      -0.00007980 
