53
Lattice="9.837389021615948 3.852938582060323e-34 -3.2718484537229836e-16 -8.511751850881662e-35 9.837389021615937 -6.699742640608712e-17 -3.271848453722983e-16 -6.699742640608705e-17 9.837389021615898" Properties=species:S:1:pos:R:3:Z:I:1:forces:R:3 energy=-316.978477752 pbc="T T T"
Ti       1.64453198       1.63818219       1.64604172       22      -0.32151160      -0.30422029      -0.33719874 
Ti       0.01523030      -0.00234153       3.27678830       22      -0.05317544       0.01280648       0.18584709 
Ti       1.65535697       1.64723918       4.91399977       22      -0.04951622       0.01948358       0.01954677 
Ti       0.00542560      -0.00463418       6.55360205       22       0.02367226       0.01939874      -0.23893808 
Ti       1.64198446       1.62043203       8.18057501       22      -0.31403949      -0.20124162       0.40544790 
Ti      -0.00562288       3.26900136       0.00314247       22       0.11529501       0.22719444      -0.03971046 
Ti       1.63048460       4.90457147       1.65422132       22       0.00025728       0.08350045      -0.06446697 
Ti      -0.00225776       3.27980496       3.26488219       22      -0.04723878      -0.10483979       0.01762029 
Ti       1.63412101       4.91980374       4.90718458       22       0.00518572      -0.00721002       0.01380231 
Ti       0.00375698       3.27312329       6.55534241       22      -0.02070687      -0.03161018       0.06521506 
Ti       1.63354777       4.93721729       8.19768921       22       0.02202282      -0.10294785       0.00597261 
Ti      -0.01057711       6.56648480      -0.01220844       22      -0.02229072      -0.27952862       0.07432079 
Ti       1.64165347       8.17822748       1.62628298       22      -0.33063921       0.39486524      -0.26197285 
Ti       0.00196861       6.56564401       3.28084336       22      -0.05067360       0.03803608      -0.10657038 
Ti       1.63840835       8.19481315       4.90390929       22       0.05172634      -0.04728572       0.08993503 
Ti      -0.00719844       6.55365296       6.56883057       22       0.01054546       0.07187404      -0.03995613 
Ti       1.64300102       8.18019378       8.20106502       22      -0.30514380       0.35939999       0.28822907 
Ti       3.27527885      -0.00676922       0.00611676       22       0.21508571       0.04334489      -0.04762628 
Ti       4.92900451       1.64887764       1.63117266       22      -0.07440863      -0.10240115       0.07525405 
Ti       3.27603755       0.00331263       3.28888513       22      -0.04869229      -0.04686772      -0.15328662 
Ti       4.91390277       1.63770825       4.90763116       22      -0.01189906       0.03417387       0.10161571 
Ti       3.26716761       0.00812526       6.57182175       22       0.01160105      -0.07978877      -0.00202216 
Ti       4.91797441       1.64960017       8.20144054       22      -0.04381354       0.03113091      -0.00687173 
Ti       3.27267848       3.28274363       0.01538037       22      -0.11145826      -0.08843818      -0.08931577 
Ti       4.91833625       4.93434095       1.61336739       22       0.01631009      -0.05720344       0.15850656 
Ti       3.28734870       3.28000014       3.27613960       22      -0.04415348      -0.03141369      -0.09690408 
Ti       4.91961212       4.89881882       4.91649779       22       0.03929880       0.09084971       0.00672349 
Ti       3.28270080       3.29390861       6.55307665       22      -0.10811700      -0.09138645       0.10508438 
Ti       4.91060957       4.91367694       8.20697821       22       0.06518869       0.00698628      -0.06731396 
Ti       3.28241718       6.55296175       0.00513267       22      -0.08554077       0.06850658      -0.00362084 
Ti       4.91966529       8.20751063       1.63254431       22       0.05027223      -0.02933468       0.03055551 
Ti       3.27585305       6.55433827       3.26449452       22       0.00869069       0.06221245       0.00804270 
Ti       4.92165571       8.20043474       4.91874565       22      -0.08237451      -0.01600439       0.04626740 
Ti       3.27678380       6.54410564       6.55405289       22      -0.02118983       0.08926763       0.01932306 
Ti       4.91526737       8.18980141       8.19621133       22       0.03386882      -0.00689062      -0.00063383 
Ti       6.56229986       0.01886186       0.00174578       22      -0.24560673      -0.13028544      -0.07300809 
Ti       8.20039969       1.63882038       1.62037712       22       0.32170771      -0.38196439      -0.21345821 
Ti       6.55799421       0.00060230       3.30376209       22       0.07886251       0.00571253      -0.19198233 
Ti       8.19590058       1.64258031       4.91834739       22       0.04190347      -0.02057552      -0.00501652 
Ti       6.54657257       0.01142823       6.56577868       22       0.10506521      -0.03363045       0.04642843 
Ti       8.20573450       1.63047096       8.21185213       22       0.32140862      -0.29238144       0.27061402 
Ti       6.54424084       3.28499824       0.02190456       22       0.13919250      -0.07207714      -0.12339510 
Ti       8.18791882       4.91303153       1.64056135       22       0.03692866       0.04725305       0.05961149 
Ti       6.55322459       3.26362304       3.27981530       22       0.07632912       0.00904163      -0.10117747 
Ti       8.18720115       4.92343044       4.90950027       22       0.02934835      -0.03279495       0.00389702 
Ti       6.57375869       3.27129714       6.55503873       22       0.00360534      -0.04879145       0.08999115 
Ti       8.20595936       4.90638587       8.20009878       22      -0.06139957      -0.00891787      -0.03696291 
Ti       6.57133078       6.54218452       0.00184634       22       0.06310796       0.17651684      -0.06887883 
Ti       8.20042301       8.20564241       1.62719533       22       0.28259246       0.32844207      -0.25081807 
Ti       6.54505478       6.56347876       3.28209952       22       0.08572787       0.07004911      -0.09148305 
Ti       8.20032911       8.20128867       4.91189426       22      -0.02447554      -0.01994810       0.05038322 
Ti       6.56058188       6.56119007       6.55111583       22       0.04568736       0.01842652       0.10905054 
Ti       8.21648193       8.20256251       8.18591115       22       0.17757682       0.36150682       0.36530382 
53
Lattice="9.837389021615948 3.852938582060323e-34 -3.2718484537229836e-16 -8.511751850881662e-35 9.837389021615937 -6.699742640608712e-17 -3.271848453722983e-16 -6.699742640608705e-17 9.837389021615898" Properties=species:S:1:pos:R:3:Z:I:1:forces:R:3 energy=-317.198377567 pbc="T T T"
Ti       1.61970454       1.61480520       1.62012303       22      -0.28535603      -0.27807687      -0.28760710 
Ti       0.01114121      -0.00192309       3.28307545       22      -0.02478627       0.00433455       0.25294230 
Ti       1.64809497       1.64448496       4.91566634       22       0.03102990       0.06083246       0.00356740 
Ti       0.00638745      -0.00298389       6.54522662       22       0.01918611       0.00681626      -0.26246658 
Ti       1.61804683       1.60414769       8.20978829       22      -0.28640382      -0.21891597       0.33141257 
Ti       0.00206436       3.27723073       0.00031805       22       0.04548371       0.27370559      -0.01013365 
Ti       1.62699750       4.90986629       1.64689883       22       0.05714882       0.06118414       0.01688606 
Ti      -0.00503838       3.26929166       3.26213782       22      -0.02333632      -0.06910729       0.00349128 
Ti       1.63151029       4.91980093       4.90863924       22       0.01477616      -0.00901570       0.00278374 
Ti       0.00236975       3.26708836       6.56362064       22      -0.01235867      -0.01985166       0.04013929 
Ti       1.63136542       4.93155161       8.20115370       22       0.06116592      -0.05111407      -0.05039126 
Ti      -0.01255738       6.55635615      -0.00722034       22      -0.01112598      -0.29278056       0.03747945 
Ti       1.61622121       8.20794127       1.60602600       22      -0.28842272       0.33040653      -0.25284937 
Ti      -0.00133824       6.57277023       3.27123922       22      -0.02766173       0.03084005      -0.06811209 
Ti       1.63780910       8.19579942       4.90948541       22       0.08076570      -0.08081297       0.05490838 
Ti      -0.00704151       6.56245643       6.57109448       22       0.00522308       0.05162514      -0.01366616 
Ti       1.61930575       8.20811414       8.22342064       22      -0.28410285       0.30177610       0.26236248 
Ti       3.28228948      -0.00398678       0.00247661       22       0.26049068       0.01568493      -0.03148375 
Ti       4.92456527       1.63751633       1.63051792       22      -0.04410713       0.00139509       0.09251382 
Ti       3.26853614      -0.00020974       3.27594160       22      -0.03487547      -0.02465168      -0.09320129 
Ti       4.91316009       1.63612081       4.91353982       22      -0.00865521       0.03231778       0.05798295 
Ti       3.26347153       0.00331533       6.57644238       22       0.00087280      -0.04155545      -0.00117517 
Ti       4.91526078       1.64676834       8.20351333       22      -0.02381836       0.07125851      -0.05604123 
Ti       3.26176772       3.27308660       0.00921714       22      -0.05109648      -0.04564330      -0.04191554 
Ti       4.92035837       4.93161572       1.61972481       22       0.01416195      -0.04821334       0.09824297 
Ti       3.28119729       3.27485752       3.26769270       22      -0.05508758      -0.04353421      -0.07887141 
Ti       4.92249471       4.90467604       4.91775134       22       0.02554057       0.05266827      -0.00046375 
Ti       3.27289043       3.28560453       6.56295768       22      -0.08991071      -0.08256688       0.07637375 
Ti       4.91469462       4.91431062       8.20484818       22       0.03979557       0.00534940      -0.03846994 
Ti       3.27353404       6.56207487       0.00477793       22      -0.05573674       0.04482214      -0.00181363 
Ti       4.92289798       8.20908090       1.63032086       22       0.01895191      -0.07679276       0.06710261 
Ti       3.27362225       6.56215503       3.26264011       22      -0.02248974       0.05848400      -0.02389929 
Ti       4.91734988       8.20179564       4.92167923       22      -0.03745118      -0.01180750       0.02221513 
Ti       3.27290850       6.55303205       6.55877118       22      -0.04485518       0.07391005       0.04912837 
Ti       4.91747438       8.19307550       8.19915327       22       0.00763085      -0.06058853      -0.05161304 
Ti       6.55257228       0.00933932      -0.00348618       22      -0.28073693      -0.05543271      -0.04533626 
Ti       8.22540119       1.60911345       1.60198107       22       0.27752914      -0.31086097      -0.23043741 
Ti       6.56667003      -0.00046079       3.28845680       22       0.04266542       0.00982143      -0.11641798 
Ti       8.20202218       1.63714307       4.91819544       22      -0.03591376       0.03364847      -0.00162479 
Ti       6.55666365       0.00872869       6.57279627       22       0.06970473      -0.01265071       0.02497409 
Ti       8.23036436       1.60743169       8.23215276       22       0.28317312      -0.26739922       0.25369641 
Ti       6.55733068       3.27570540       0.01361315       22       0.09845246      -0.06254765      -0.06242354 
Ti       8.19466588       4.91619220       1.64043401       22      -0.03233619       0.01693195       0.07695547 
Ti       6.56189611       3.26031556       3.27123503       22       0.06787596      -0.02645695      -0.09347808 
Ti       8.19184263       4.92179495       4.91006400       22       0.00684958      -0.02086115       0.00608695 
Ti       6.57762168       3.26505567       6.56352372       22       0.01935355      -0.05932782       0.07608655 
Ti       8.20608763       4.90618056       8.20075692       22      -0.08404546       0.00147946      -0.07044643 
Ti       6.57947903       6.55730713      -0.00230188       22       0.03730010       0.10287883      -0.03646184 
Ti       8.22175275       8.23051226       1.60719245       22       0.26604001       0.28770075      -0.23776405 
Ti       6.55407486       6.57136342       3.27432771       22       0.08268273       0.06575874      -0.07607309 
Ti       8.20199741       8.20351724       4.91493553       22      -0.06936785      -0.06076542       0.03608250 
Ti       6.56651612       6.56609192       6.56109992       22       0.05967160       0.03520111       0.08857799 
Ti       8.23104051       8.22977036       8.21308958       22       0.22051622       0.30049962       0.30264516 
53
Lattice="9.837389021615948 3.852938582060323e-34 -3.2718484537229836e-16 -8.511751850881662e-35 9.837389021615937 -6.699742640608712e-17 -3.271848453722983e-16 -6.699742640608705e-17 9.837389021615898" Properties=species:S:1:pos:R:3:Z:I:1:forces:R:3 energy=-317.582198059 pbc="T T T"
Ti       1.56742210       1.56465956       1.56705285       22      -0.20657221      -0.21287441      -0.19971690 
Ti       0.00524474      -0.00156655       3.30783685       22       0.01468924      -0.00739584       0.32555221 
Ti       1.64226724       1.64468837       4.91742206       22       0.15009248       0.12845080      -0.01606688 
Ti       0.00858540      -0.00093582       6.51975503       22       0.01114809      -0.00563583      -0.27953885 
Ti       1.56645395       1.56529586       8.26885808       22      -0.21788149      -0.22271895       0.19942752 
Ti       0.01187471       3.30483871      -0.00263185       22      -0.04668404       0.31018636       0.02977756 
Ti       1.62693494       4.91992106       1.64042809       22       0.14192999       0.01337772       0.14284351 
Ti      -0.00909113       3.25052661       3.25597171       22       0.01196769      -0.02818904      -0.03883165 
Ti       1.62807424       4.91930514       4.91038005       22       0.02778332      -0.00679698      -0.01131650 
Ti      -0.00004217       3.25632953       6.57809330       22       0.00204431      -0.02355527       0.02021590 
Ti       1.63233897       4.92378005       8.20168957       22       0.12611878       0.02498052      -0.13487087 
Ti      -0.01542188       6.52740799       0.00023239       22       0.00446029      -0.27830870      -0.01142939 
Ti       1.56324910       8.26841640       1.56092397       22      -0.20162430       0.20874246      -0.21534362 
Ti      -0.00626007       6.58612686       3.25433487       22       0.00415760       0.03537740      -0.02306520 
Ti       1.64165339       8.19229514       4.91893460       22       0.13005560      -0.13484969      -0.00690591 
Ti      -0.00677293       6.57876789       6.57695392       22      -0.00132606       0.02894198       0.03957782 
Ti       1.56762558       8.26487894       8.27149922       22      -0.22185466       0.19156785       0.20276450 
Ti       3.30672164      -0.00054768      -0.00392720       22       0.30249944      -0.02025533      -0.00609583 
Ti       4.91733482       1.62523179       1.63390446       22       0.00364316       0.15392671       0.12316178 
Ti       3.25480902      -0.00550038       3.25375093       22      -0.02967044       0.00307494      -0.01420861 
Ti       4.91166887       1.63441406       4.92250107       22      -0.00182967       0.02922669      -0.01250570 
Ti       3.25576094      -0.00386837       6.58466875       22      -0.03531828       0.01444340       0.02402439 
Ti       4.91112505       1.64741665       8.20172722       22       0.00693287       0.13569378      -0.13386038 
Ti       3.24499984       3.25747792       0.00063574       22       0.01231491      -0.00195307       0.02431152 
Ti       4.92431927       4.92532341       1.63007604       22       0.01073664      -0.02146001       0.00691870 
Ti       3.26757436       3.26316960       3.25087487       22      -0.07229660      -0.05907994      -0.05094624 
Ti       4.92738118       4.91367604       4.91911292       22       0.00138012      -0.00534242      -0.00854569 
Ti       3.25355419       3.26847969       6.58093501       22      -0.06010794      -0.06314358       0.04031800 
Ti       4.92152053       4.91526077       8.20221540       22       0.00054871       0.00061052       0.00041476 
Ti       3.25753343       6.57816111       0.00436331       22      -0.02443888       0.02406876       0.00024659 
Ti       4.92676399       8.20563564       1.63140917       22      -0.02591217      -0.14448493       0.12500309 
Ti       3.26639827       6.57776917       3.25576853       22      -0.06771436       0.05406637      -0.06868791 
Ti       4.91158693       8.20428709       4.92575127       22       0.02932317      -0.01299525      -0.01313286 
Ti       3.26235421       6.57039040       6.57125788       22      -0.07323932       0.04785149       0.08487419 
Ti       4.91955503       8.19284614       8.19894458       22      -0.02802726      -0.14373770      -0.13491047 
Ti       6.52318587      -0.00366576      -0.01245126       22      -0.30058380       0.04100137      -0.00143775 
Ti       8.27697097       1.55006958       1.55902066       22       0.19184312      -0.17801725      -0.22565157 
Ti       6.58096392      -0.00125999       3.26238699       22       0.01014468       0.01267240      -0.01793773 
Ti       8.20589367       1.63255665       4.91803292       22      -0.15283870       0.12405073       0.00567403 
Ti       6.57477276       0.00527907       6.58460357       22       0.02672672       0.01383945       0.01846510 
Ti       8.28200380       1.55822797       8.27696300       22       0.19925118      -0.20436454       0.20095365 
Ti       6.58121695       3.25748072       0.00136030       22       0.04170552      -0.05638653       0.02093104 
Ti       8.20041383       4.91985802       1.64409108       22      -0.13955229      -0.02421853       0.11445448 
Ti       6.57897368       3.25058637       3.25271162       22       0.05680802      -0.07683866      -0.06806639 
Ti       8.19879386       4.91889308       4.91134115       22      -0.02850290      -0.00409214       0.00638992 
Ti       6.58631536       3.25081869       6.58034060       22       0.04979515      -0.06917798       0.05458031 
Ti       8.20174978       4.90660944       8.19734373       22      -0.12571027       0.01960344      -0.12639874 
Ti       6.59367799       6.58217002      -0.00853765       22       0.01493115       0.01113365       0.01261598 
Ti       8.26900177       8.28285511       1.56337090       22       0.21400931       0.19932235      -0.20528180 
Ti       6.57295611       6.58710443       3.25862773       22       0.07648193       0.05892885      -0.05330985 
Ti       8.19957718       8.20248309       4.92077339       22      -0.14216262      -0.12295601       0.00607302 
Ti       6.58059695       6.57722728       6.58065644       22       0.07224234       0.06267512       0.05517787 
Ti       8.26935309       8.28513695       8.26838595       22       0.25808271       0.18101347       0.19331587 
53
Lattice="9.837389021615948 3.852938582060323e-34 -3.2718484537229836e-16 -8.511751850881662e-35 9.837389021615937 -6.699742640608712e-17 -3.271848453722983e-16 -6.699742640608705e-17 9.837389021615898" Properties=species:S:1:pos:R:3:Z:I:1:forces:R:3 energy=-317.952405011 pbc="T T T"
Ti       1.48606290       1.48560638       1.48498358       22       0.00201441      -0.00270252       0.02609635 
Ti      -0.00114466      -0.00153386       3.35933941       22       0.05724445      -0.02037570       0.24737503 
Ti       1.64497972       1.65352847       4.91845899       22       0.26059909       0.19087751      -0.03001476 
Ti       0.01223382       0.00124144       6.47055026       22       0.00266348      -0.01800585      -0.15945821 
Ti       1.48501296       1.49942033       8.35843601       22      -0.00264644      -0.12291603      -0.08898113 
Ti       0.02093916       3.35890072      -0.00407540       22      -0.13313053       0.19031068       0.06295340 
Ti       1.63623088       4.93312084       1.64211807       22       0.21409443      -0.06003094       0.26175864 
Ti      -0.01335115       3.22363576       3.24351029       22       0.05138739      -0.00686266      -0.11742075 
Ti       1.62520117       4.91840480       4.91170786       22       0.02470351      -0.00021683      -0.02257257 
Ti      -0.00300623       3.23953973       6.59924082       22       0.01935691      -0.05802736       0.03306445 
Ti       1.64192870       4.91639745       8.19374905       22       0.18279624       0.11470226      -0.20749771 
Ti      -0.01853353       6.47454176       0.00914387       22       0.02805123      -0.10838512      -0.06138286 
Ti       1.48146210       8.36016959       1.48783650       22       0.00465423      -0.05406196      -0.06616373 
Ti      -0.01201234       6.60694120       3.23014737       22       0.03660129       0.06928561       0.00522345 
Ti       1.65507856       8.17898187       4.93007538       22       0.17145036      -0.18034665      -0.09231233 
Ti      -0.00632081       6.60271902       6.58901177       22      -0.00482641       0.02459032       0.12507351 
Ti       1.48582509       8.35079223       8.34777147       22      -0.03917989      -0.03574456       0.03717696 
Ti       3.35593137       0.00240644      -0.01248924       22       0.19626548      -0.05233212       0.02469496 
Ti       4.90877300       1.62017065       1.64617920       22       0.06595475       0.29448448       0.14307556 
Ti       3.23397644      -0.01195744       3.22355928       22      -0.05791161       0.02638582       0.04916623 
Ti       4.90961733       1.63393187       4.93204966       22       0.00717677       0.00971377      -0.09339854 
Ti       3.24158251      -0.01181652       6.59840348       22      -0.10759292       0.07126218       0.08645333 
Ti       4.90662985       1.65751760       8.19046026       22       0.04556933       0.19133439      -0.20566476 
Ti       3.22331842       3.23644159      -0.00813304       22       0.03815130       0.00832092       0.09267851 
Ti       4.93013514       4.91609683       1.64278085       22       0.00520353       0.02534454      -0.10757531 
Ti       3.24475139       3.24370215       3.22535462       22      -0.07645879      -0.06204392      -0.01210310 
Ti       4.93327652       4.92391658       4.92001148       22      -0.02979394      -0.07002973      -0.01484878 
Ti       3.22458593       3.24228853       6.60689463       22      -0.02223913      -0.03033057       0.00646747 
Ti       4.92991052       4.91619436       8.19971024       22      -0.04318204      -0.00723243       0.05389731 
Ti       3.23410932       6.60142327       0.00399280       22      -0.01800012       0.03242098       0.00240272 
Ti       4.92948133       8.19168021       1.64100546       22      -0.07092115      -0.19453459       0.17165221 
Ti       3.25173935       6.60179321       3.24126457       22      -0.09366576       0.03239913      -0.09396738 
Ti       4.90655714       8.20677288       4.92965019       22       0.10057924      -0.00395468      -0.04940274 
Ti       3.24319845       6.59596496       6.59352667       22      -0.08495463       0.00598699       0.09896090 
Ti       4.92000677       8.18282643       8.18960139       22      -0.06195326      -0.21988299      -0.21501875 
Ti       6.46798718      -0.01747424      -0.02393293       22      -0.15783261       0.13137943       0.05125834 
Ti       8.35653544       1.46245631       1.48785096       22      -0.02372834       0.12243255      -0.10979488 
Ti       6.60108974      -0.00116756       3.22705043       22       0.01083128       0.01118893       0.06800865 
Ti       8.20046078       1.63512699       4.91830496       22      -0.26371607       0.21247619       0.01293368 
Ti       6.60074647       0.00198421       6.60238006       22      -0.00096674       0.03727152       0.05014497 
Ti       8.36193647       1.48093721       8.34860647       22      -0.03336507       0.00814600       0.03959086 
Ti       6.61513641       3.22930916      -0.01240487       22      -0.01163691      -0.05846706       0.10417262 
Ti       8.19827682       4.92248817       1.65640643       22      -0.24411000      -0.06734372       0.14799750 
Ti       6.60498745       3.23193865       3.22412095       22       0.03443096      -0.11924025      -0.01683668 
Ti       8.20586549       4.91489188       4.91321815       22      -0.05124050       0.01551342       0.00198359 
Ti       6.60161112       3.22742268       6.60586656       22       0.08225618      -0.06278717       0.01822527 
Ti       8.18784107       4.90872656       8.18491916       22      -0.15982876       0.03822701      -0.17281490 
Ti       6.61416489       6.61509137      -0.01527702       22       0.01947929      -0.06385307       0.06358565 
Ti       8.34497882       8.36390087       1.49216278       22       0.03268931      -0.05489493      -0.05854549 
Ti       6.60273100       6.61132132       3.23434990       22       0.05783124       0.04638216      -0.01987202 
Ti       8.18724921       8.19327554       4.92842599       22      -0.21064987      -0.17182033      -0.03794529 
Ti       6.60404886       6.59634523       6.60973505       22       0.06967777       0.08547520       0.00653757 
Ti       8.33770096       8.36845382       8.35311499       22       0.18181804      -0.08948826      -0.03901701 
53
Lattice="9.837389021615948 3.852938582060323e-34 -3.2718484537229836e-16 -8.511751850881662e-35 9.837389021615937 -6.699742640608712e-17 -3.271848453722983e-16 -6.699742640608705e-17 9.837389021615898" Properties=species:S:1:pos:R:3:Z:I:1:forces:R:3 energy=-318.030649534 pbc="T T T"
Ti       1.46173045       1.46242511       1.46148338       22       0.10774223       0.10073197       0.12046832 
Ti      -0.00057285      -0.00210105       3.38583516       22       0.04952124      -0.01723831       0.13421296 
Ti       1.65924400       1.66708396       4.91737455       22       0.22863774       0.16225299      -0.02329922 
Ti       0.01397192       0.00097219       6.44744707       22      -0.00594430      -0.01506191      -0.07925152 
Ti       1.46064270       1.47377264       8.38167072       22       0.10135560      -0.00558872      -0.17886306 
Ti       0.01819071       3.38466222      -0.00174374       22      -0.11418457       0.09806033       0.04312433 
Ti       1.65049277       4.93420197       1.65597591       22       0.18082721      -0.06711463       0.23291253 
Ti      -0.01262609       3.21453612       3.23334505       22       0.04988325       0.00058847      -0.10242927 
Ti       1.62621904       4.91807248       4.91091011       22      -0.00290462       0.00430144      -0.01718833 
Ti      -0.00315764       3.23130585       6.60813124       22       0.02298015      -0.05522327       0.03191392 
Ti       1.65506276       4.91927784       8.18089043       22       0.15444732       0.08812317      -0.17574505 
Ti      -0.01778102       6.45254447       0.00978994       22       0.03279760      -0.04736087      -0.05564608 
Ti       1.45690338       8.38518059       1.46236053       22       0.10441041      -0.15333170       0.04645829 
Ti      -0.01236456       6.61669039       3.22167291       22       0.03404620       0.05958621       0.01151568 
Ti       1.66906484       8.16443848       4.92911002       22       0.14343322      -0.15395562      -0.08874034 
Ti      -0.00587693       6.61154648       6.59862683       22      -0.00405018       0.02077269       0.10838417 
Ti       1.45925877       8.37490110       8.37314163       22       0.07760491      -0.12211105      -0.06953122 
Ti       3.38020686       0.00119050      -0.01410206       22       0.10817577      -0.04295724       0.02879976 
Ti       4.90914747       1.63372138       1.65934605       22       0.05816871       0.25896197       0.11574490 
Ti       3.22427948      -0.01304654       3.21522402       22      -0.05077360       0.02583569       0.05131118 
Ti       4.90919590       1.63567767       4.93080367       22       0.00601729      -0.02044294      -0.08861850 
Ti       3.23166132      -0.01169465       6.60688204       22      -0.09845944       0.06827705       0.08039674 
Ti       4.90739389       1.67198666       8.17627261       22       0.03747978       0.15977112      -0.17911668 
Ti       3.21729806       3.22968799      -0.00661293       22       0.02451814      -0.00045030       0.08435082 
Ti       4.93198184       4.91415426       1.64344095       22       0.00220490       0.03682764      -0.12515798 
Ti       3.23480912       3.23558671       3.21669732       22      -0.05353188      -0.04618207      -0.00306923 
Ti       4.93350592       4.92379376       4.91921263       22      -0.03027723      -0.06726177      -0.01008830 
Ti       3.21466355       3.23310964       6.61534292       22      -0.00694163      -0.01225451      -0.00070926 
Ti       4.93074589       4.91587811       8.20097657       22      -0.04421676      -0.00731198       0.06638551 
Ti       3.22491484       6.61038342       0.00416449       22      -0.01377708       0.02933688       0.00273613 
Ti       4.92712506       8.17668352       1.65374638       22      -0.05450218      -0.15993520       0.14551224 
Ti       3.24379269       6.60958326       3.23285437       22      -0.07234788       0.01899524      -0.07382816 
Ti       4.90914829       8.20642690       4.92861987       22       0.08899683       0.01598066      -0.04161330 
Ti       3.23382047       6.60341713       6.60401516       22      -0.06308251      -0.00281298       0.06733637 
Ti       4.91731138       8.16757456       8.17542037       22      -0.04163902      -0.18563999      -0.18923544 
Ti       6.44425146      -0.01644581      -0.02531834       22      -0.06318829       0.11421800       0.05522605 