12
Lattice="5.753695825489497 0.0 0.0 0.0 5.753695825489497 0.0 0.0 0.0 7.249656744495459" Properties=species:S:1:pos:R:3:Z:I:1:forces:R:3 stress="0.07542812859525229 0.0 0.0 0.0 0.07542812859525229 2.47882585279802e-27 0.0 2.47882585279802e-27 0.14078971015466987" cutoff=-1.0 energy=-44.4743213978 nneightol=1.2 pbc="T T T"
Si       0.48848877       0.48848877       0.00000000       14       1.68642155       1.68642155       0.00000000 
Si      -0.48848877      -0.48848877       3.62482838       14      -1.68642155      -1.68642155       0.00000000 
Si       2.38835913       3.36533669       5.43724256       14      -1.68642155       1.68642155      -0.00000000 
Si       3.36533669       2.38835913       1.81241418       14       1.68642155      -1.68642155       0.00000000 
Si       0.69504645       3.88489542       0.17544169       14       0.71018895      -0.65340407      -1.09543407 
Si       1.00804751       2.18180145       1.98785588       14      -0.65340407      -0.71018895      -1.09543407 
Si       1.86880040       5.05864937       3.44938668       14       0.65340407      -0.71018895       1.09543407 
Si       2.18180145       1.00804751       5.26180087       14      -0.71018895      -0.65340407       1.09543407 
Si       3.57189437       4.74564832       1.63697249       14       0.71018895       0.65340407       1.09543407 
Si       3.88489542       0.69504645      -0.17544169       14      -0.65340407       0.71018895       1.09543407 
Si       4.74564832       3.57189437       5.61268425       14       0.65340407       0.71018895      -1.09543407 
Si       5.05864937       1.86880040       3.80027006       14      -0.71018895       0.65340407      -1.09543407 
12
Lattice="5.6631823668277805 0.0 0.0 0.0 5.6631823668277805 -2.974581307204117e-27 0.0 -3.747972449340912e-27 7.036783397941173" Properties=species:S:1:pos:R:3:Z:I:1:forces:R:3 stress="0.03357757020168667 -8.534637896034875e-54 1.0378524648663804e-26 -8.534637896034875e-54 0.03357757020168667 1.0337268767812103e-26 1.0378524648663804e-26 1.0337268767812103e-26 0.07191724238112464" cutoff=-1.0 energy=-46.652656476 nneightol=1.2 pbc="T T T"
Si       0.54959920       0.54959920      -0.00000000       14       0.13619846       0.13619846       0.00000000 
Si      -0.54959920      -0.54959920       3.51839170       14      -0.13619846      -0.13619846       0.00000000 
Si       2.28199198       3.38119039       5.27758755       14      -0.13619846       0.13619846      -0.00000000 
Si       3.38119039       2.28199198       1.75919585       14       0.13619846      -0.13619846      -0.00000000 
Si       0.72112490       3.81349237       0.12334111       14       0.22549426       0.51123125      -0.23137321 
Si       0.98190118       2.11046628       1.88253696       14       0.51123125      -0.22549426      -0.23137321 
Si       1.84969000       4.94205747       3.39505059       14      -0.51123125      -0.22549426       0.23137321 
Si       2.11046628       0.98190118       5.15424644       14      -0.22549426       0.51123125       0.23137321 
Si       3.55271609       4.68128119       1.63585474       14       0.22549426      -0.51123125       0.23137321 
Si       3.81349237       0.72112490      -0.12334111       14       0.51123125       0.22549426       0.23137321 
Si       4.68128119       3.55271609       5.40092866       14      -0.51123125       0.22549426      -0.23137321 
Si       4.94205747       1.84969000       3.64173281       14      -0.22549426      -0.51123125      -0.23137321 
12
Lattice="5.531362832070632 1.0977272534908933e-52 -1.3348884272123902e-25 3.867312251635362e-53 5.531362832070632 -1.2656460443543926e-25 -1.705581288236171e-25 -1.6149325766337683e-25 6.560597377227366" Properties=species:S:1:pos:R:3:Z:I:1:forces:R:3 stress="-0.09404922517881795 -4.1681787252858435e-52 9.37702410835873e-27 -4.1681787252858435e-52 -0.09404922517881795 1.1397112051454534e-26 9.37702410835873e-27 1.1397112051454534e-26 -0.01161926305984085" cutoff=-1.0 energy=-47.0793878903 nneightol=1.2 pbc="T T T"
Si       0.51843011       0.51843011      -0.00000000       14       0.52713207       0.52713207      -0.00000000 
Si      -0.51843011      -0.51843011       3.28029869       14      -0.52713207      -0.52713207       0.00000000 
Si       2.24725130       3.28411153       4.92044804       14      -0.52713207       0.52713207       0.00000000 
Si       3.28411153       2.24725130       1.64014934       14       0.52713207      -0.52713207      -0.00000000 
Si       0.70248436       3.76235290       0.12421491       14       0.37359555       0.45599187       0.56023277 
Si       0.99667148       2.06319705       1.76436425       14       0.45599187      -0.37359555       0.56023277 
Si       1.76900993       4.82887847       3.15608378       14      -0.45599187      -0.37359555      -0.56023277 
Si       2.06319705       0.99667148       4.79623313       14      -0.37359555       0.45599187      -0.56023277 
Si       3.46816578       4.53469135       1.51593443       14       0.37359555      -0.45599187      -0.56023277 
Si       3.76235290       0.70248436      -0.12421491       14       0.45599187       0.37359555      -0.56023277 
Si       4.53469135       3.46816578       5.04466295       14      -0.45599187       0.37359555       0.56023277 
Si       4.82887847       1.76900993       3.40451359       14      -0.37359555      -0.45599187       0.56023277 
12
Lattice="5.623340799484092 4.872127461516084e-52 -1.9984459535454129e-25 5.1314795598056446e-52 5.623340799484092 -1.9451198045495238e-25 -2.513482740669843e-25 -2.447317581117371e-25 6.321593670683713" Properties=species:S:1:pos:R:3:Z:I:1:forces:R:3 stress="-0.060798457850561115 1.826892811159825e-52 -2.046766436137338e-27 1.826892811159825e-52 -0.060798457850561115 -3.635795023772372e-27 -2.046766436137338e-27 -3.635795023772372e-27 -0.007375438767527569" cutoff=-1.0 energy=-47.7582054305 nneightol=1.2 pbc="T T T"
Si       0.55146376       0.55146376       0.00000000       14       0.09511175       0.09511175      -0.00000000 
Si      -0.55146376      -0.55146376       3.16079684       14      -0.09511175      -0.09511175       0.00000000 
Si       2.26020664       3.36313416       4.74119526       14      -0.09511175       0.09511175      -0.00000000 
Si       3.36313416       2.26020664       1.58039842       14       0.09511175      -0.09511175      -0.00000000 
Si       0.73392939       3.85815505       0.12655905       14       0.11812008       0.26236238       1.07514449 
Si       1.04648465       2.07774100       1.70695746       14       0.26236238      -0.11812008       1.07514449 
Si       1.76518575       4.88941141       3.03423779       14      -0.26236238      -0.11812008      -1.07514449 
Si       2.07774100       1.04648465       4.61463621       14      -0.11812008       0.26236238      -1.07514449 
Si       3.54559980       4.57685615       1.45383937       14       0.11812008      -0.26236238      -1.07514449 
Si       3.85815505       0.73392939      -0.12655905       14       0.26236238       0.11812008      -1.07514449 
Si       4.57685615       3.54559980       4.86775430       14      -0.26236238       0.11812008       1.07514449 
Si       4.88941141       1.76518575       3.28735588       14      -0.11812008      -0.26236238       1.07514449 
12
Lattice="5.77736292100683 6.58062382503132e-52 -2.519803202633228e-25 4.1522996728859306e-53 5.77736292100683 -2.298780891700511e-25 -2.9690956602282525e-25 -2.6722923989386633e-25 5.774138515289146" Properties=species:S:1:pos:R:3:Z:I:1:forces:R:3 stress="-0.10596366835467134 -5.1578179441554086e-73 2.4182044445327657e-27 -5.1578179441554086e-73 -0.10596366835467134 -2.352866087312053e-17 2.4182044445327657e-27 -2.352866087312053e-17 -0.09281751276263828" cutoff=-1.0 energy=-48.5901624077 nneightol=1.2 pbc="T T T"
Si       0.59314359       0.59314359       0.00000000       14      -0.30901394      -0.30901394       0.00000000 
Si      -0.59314359      -0.59314359       2.88706926       14       0.30901394       0.30901394      -0.00000000 
Si       2.29553787       3.48182505       4.33060389       14       0.30901394      -0.30901394      -0.00000000 
Si       3.48182505       2.29553787       1.44353463       14      -0.30901394       0.30901394      -0.00000000 
Si       0.77790351       4.00816822       0.18858896       14      -0.15912817      -0.11583718       0.52976198 
Si       1.11948675       2.11077795       1.63212358       14      -0.11583718       0.15912817       0.52976198 
Si       1.76919470       4.99945941       2.69848030       14       0.11583718       0.15912817      -0.52976198 
Si       2.11077795       1.11948675       4.14201493       14       0.15912817      -0.11583718      -0.52976198 
Si       3.66658497       4.65787617       1.25494567       14      -0.15912817       0.11583718      -0.52976198 
Si       4.00816822       0.77790351      -0.18858896       14      -0.11583718      -0.15912817      -0.52976198 
Si       4.65787617       3.66658497       4.51919285       14       0.11583718      -0.15912817       0.52976198 
Si       4.99945941       1.76919470       3.07565821       14       0.15912817       0.11583718       0.52976198 
12
Lattice="5.98225973854189 7.027111344619327e-42 -1.33054087509897e-25 -1.4884358512026767e-51 5.98225973854189 1.3665950471019053e-16 -1.2688548042984502e-25 2.1708178559651696e-16 5.833426322114923" Properties=species:S:1:pos:R:3:Z:I:1:forces:R:3 stress="0.005061752978757128 1.2925454940586219e-70 -4.974223948731547e-28 1.2925454940586219e-70 0.005061752978757128 -6.188140920647801e-80 -4.974223948731547e-28 -6.188140920647801e-80 0.02937362259260394" cutoff=-1.0 energy=-49.4870903671 nneightol=1.2 pbc="T T T"
Si       0.61219998       0.61219998       0.00000000       14      -0.34465611      -0.34465611      -0.00000000 
Si      -0.61219998      -0.61219998       2.91671317       14       0.34465611       0.34465611       0.00000000 
Si       2.37892988       3.60332986       4.37506974       14       0.34465611      -0.34465611      -0.00000000 
Si       3.60332986       2.37892988       1.45835658       14      -0.34465611       0.34465611       0.00000000 
Si       0.80858927       4.13300885       0.25821626       14       0.16609535       0.47556019       0.27614832 
Si       1.14187898       2.18254059       1.71657284       14       0.47556019      -0.16609535       0.27614832 
Si       1.84925089       5.17367047       2.65849691       14      -0.47556019      -0.16609535      -0.27614832 
Si       2.18254059       1.14187898       4.11685348       14      -0.16609535       0.47556019      -0.27614832 
Si       3.79971914       4.84038076       1.20014032       14       0.16609535      -0.47556019      -0.27614832 
Si       4.13300885       0.80858927      -0.25821626       14       0.47556019       0.16609535      -0.27614832 
Si       4.84038076       3.79971914       4.63328600       14      -0.47556019       0.16609535       0.27614832 
Si       5.17367047       1.84925089       3.17492942       14      -0.16609535      -0.47556019       0.27614832 
12
Lattice="6.157647831647289 1.3239439604801017e-41 -9.678309270169153e-26 -6.578268718884339e-44 6.157647831647289 2.656747711326915e-16 -6.596222921915543e-26 4.0986164086203763e-16 5.534490790363892" Properties=species:S:1:pos:R:3:Z:I:1:forces:R:3 stress="-0.014965194484602503 -8.266521106984245e-63 -1.7750049784939674e-27 -8.266521106984245e-63 -0.014965194484602503 -1.961022095252383e-71 -1.7750049784939674e-27 -1.961022095252383e-71 -0.031118715376026746" cutoff=-1.0 energy=-49.6283480693 nneightol=1.2 pbc="T T T"
Si       0.60070268       0.60070268       0.00000000       14       0.09832871       0.09832871       0.00000000 
Si      -0.60070268      -0.60070268       2.76724540       14      -0.09832871      -0.09832871      -0.00000000 
Si       2.47812123       3.67952660       4.15086809       14      -0.09832871       0.09832871       0.00000000 
Si       3.67952660       2.47812123       1.38362270       14       0.09832871      -0.09832871      -0.00000000 
Si       0.85945319       4.28119647       0.29200344       14       0.14494765      -0.43392618      -0.52580461 
Si       1.20237255       2.21937072       1.67562614       14      -0.43392618      -0.14494765      -0.52580461 
Si       1.87645136       5.29819464       2.47524196       14       0.43392618      -0.14494765       0.52580461 
Si       2.21937072       1.20237255       3.85886465       14      -0.14494765      -0.43392618       0.52580461 
Si       3.93827711       4.95527528       1.09161925       14       0.14494765       0.43392618       0.52580461 
Si       4.28119647       0.85945319      -0.29200344       14      -0.43392618       0.14494765       0.52580461 
Si       4.95527528       3.93827711       4.44287154       14       0.43392618       0.14494765      -0.52580461 
Si       5.29819464       1.87645136       3.05924883       14      -0.14494765       0.43392618      -0.52580461 
12
Lattice="6.095507033717129 1.0429354680716254e-41 -9.170383188008463e-26 -8.645141660251677e-43 6.095507033717129 2.0261532524212905e-16 -5.715479956312294e-26 3.191957972679387e-16 5.656471717170149" Properties=species:S:1:pos:R:3:Z:I:1:forces:R:3 stress="0.003973118126748171 4.462085170532061e-45 -2.1655182443466463e-29 4.462085170532061e-45 0.003973118126748171 -5.812871839441885e-19 -2.1655182443466463e-29 -5.812871839441885e-19 0.007102573189233297" cutoff=-1.0 energy=-49.7591836239 nneightol=1.2 pbc="T T T"
Si       0.58775617       0.58775617       0.00000000       14      -0.17222002      -0.17222002      -0.00000000 
Si      -0.58775617      -0.58775617       2.82823586       14       0.17222002       0.17222002       0.00000000 
Si       2.45999734       3.63550969       4.24235379       14       0.17222002      -0.17222002      -0.00000000 
Si       3.63550969       2.45999734       1.41411793       14      -0.17222002       0.17222002       0.00000000 
Si       0.86545488       4.21985915       0.27263435       14       0.12335234      -0.03969899       0.04564875 
Si       1.17210563       2.18229863       1.68675228       14      -0.03969899      -0.12335234       0.04564875 
Si       1.87564788       5.23005215       2.55560151       14       0.03969899      -0.12335234      -0.04564875 
Si       2.18229863       1.17210563       3.96971944       14      -0.12335234      -0.03969899      -0.04564875 
Si       3.91320841       4.92340141       1.14148357       14       0.12335234       0.03969899      -0.04564875 
Si       4.21985915       0.86545488      -0.27263435       14      -0.03969899       0.12335234      -0.04564875 
Si       4.92340141       3.91320841       4.51498814       14       0.03969899       0.12335234       0.04564875 
Si       5.23005215       1.87564788       3.10087021       14      -0.12335234       0.03969899       0.04564875 
12
Lattice="6.106766963150003 1.0350947651426626e-41 -9.170609018399052e-26 -1.2205906830096146e-42 6.106766963150003 2.050239294544574e-16 -5.459784207540184e-26 3.242637046614131e-16 5.632083558850196" Properties=species:S:1:pos:R:3:Z:I:1:forces:R:3 stress="0.006453845149347367 -2.9456886691172017e-45 1.438430490825132e-29 -2.9456886691172017e-45 0.006453845149347367 2.364643877261499e-19 1.438430490825132e-29 2.364643877261499e-19 0.005843091978286412" cutoff=-1.0 energy=-49.8300352656 nneightol=1.2 pbc="T T T"
Si       0.56021614       0.56021614       0.00000000       14      -0.14599713      -0.14599713      -0.00000000 
Si      -0.56021614      -0.56021614       2.81604178       14       0.14599713       0.14599713       0.00000000 
Si       2.49316734       3.61359962       4.22406267       14       0.14599713      -0.14599713      -0.00000000 
Si       3.61359962       2.49316734       1.40802089       14      -0.14599713       0.14599713       0.00000000 
Si       0.89777014       4.20781826       0.26722656       14       0.09040938      -0.04431979       0.20637745 
Si       1.15443478       2.15561334       1.67524745       14      -0.04431979      -0.09040938       0.20637745 
Si       1.89894870       5.20899682       2.54881522       14       0.04431979      -0.09040938      -0.20637745 
Si       2.15561334       1.15443478       3.95683611       14      -0.09040938      -0.04431979      -0.20637745 
Si       3.95115363       4.95233219       1.14079432       14       0.09040938       0.04431979      -0.20637745 
Si       4.20781826       0.89777014      -0.26722656       14      -0.04431979       0.09040938      -0.20637745 
Si       4.95233219       3.95115363       4.49128924       14       0.04431979       0.09040938       0.20637745 
Si       5.20899682       1.89894870       3.08326834       14      -0.09040938       0.04431979       0.20637745 
12
Lattice="6.1156364344846255 1.0434202939495524e-41 -9.531136284958859e-26 -1.4397820433892197e-42 6.1156364344846255 2.061592413871168e-16 -5.787184371372541e-26 3.276774334911657e-16 5.617166909523758" Properties=species:S:1:pos:R:3:Z:I:1:forces:R:3 stress="0.0025550401576619874 2.6160901149689893e-53 8.97114092888731e-30 2.6160901149689893e-53 0.0025550401576619874 1.0560215405622399e-72 8.97114092888731e-30 1.0560215405622399e-72 0.0019964727985163993" cutoff=-1.0 energy=-49.8652426367 nneightol=1.2 pbc="T T T"
Si       0.54053079       0.54053079       0.00000000       14      -0.03330177      -0.03330177      -0.00000000 
Si      -0.54053079      -0.54053079       2.80858346       14       0.03330177       0.03330177       0.00000000 
Si       2.51728742       3.59834901       4.21287518       14       0.03330177      -0.03330177      -0.00000000 
Si       3.59834901       2.51728742       1.40429173       14      -0.03330177       0.03330177       0.00000000 
Si       0.92463955       4.19778960       0.26871701       14       0.01022612      -0.01930258       0.24525626 
Si       1.13997138       2.13317866       1.67300874       14      -0.01930258      -0.01022612       0.24525626 
Si       1.91784683       5.19099688       2.53986645       14       0.01930258      -0.01022612      -0.24525626 
Si       2.13317866       1.13997138       3.94415817       14      -0.01022612      -0.01930258      -0.24525626 
Si       3.98245778       4.97566505       1.13557471       14       0.01022612       0.01930258      -0.24525626 
Si       4.19778960       0.92463955      -0.26871701       14      -0.01930258       0.01022612      -0.24525626 
Si       4.97566505       3.98245777       4.48159220       14       0.01930258       0.01022612       0.24525626 
Si       5.19099688       1.91784683       3.07730046       14      -0.01022612       0.01930258       0.24525626 
12
Lattice="6.139845120173365 1.097833211599784e-41 -9.651363356663333e-26 -1.724455325911004e-42 6.139845120173365 2.192242153042562e-16 -5.712382470751162e-26 3.502646554053685e-16 5.59325527425916" Properties=species:S:1:pos:R:3:Z:I:1:forces:R:3 stress="0.0022034901158025006 -7.357563464906077e-62 -1.4727670186120326e-27 -7.357563464906077e-62 0.0022034901158025006 4.892730907141556e-19 -1.4727670186120326e-27 4.892730907141556e-19 -0.001197675798949911" cutoff=-1.0 energy=-49.8814946459 nneightol=1.2 pbc="T T T"
Si       0.53389341       0.53389341       0.00000000       14       0.01260218       0.01260218       0.00000000 
Si      -0.53389341      -0.53389341       2.79662764       14      -0.01260218      -0.01260218      -0.00000000 
Si       2.53602914       3.60381598       4.19494146       14      -0.01260218       0.01260218       0.00000000 
Si       3.60381598       2.53602914       1.39831382       14       0.01260218      -0.01260218      -0.00000000 
Si       0.94578604       4.20381811       0.28101409       14      -0.05219647      -0.01180773       0.13434938 
Si       1.13389554       2.12413652       1.67932791       14      -0.01180773       0.05219647       0.13434938 
Si       1.93602701       5.19405908       2.51561355       14       0.01180773       0.05219647      -0.13434938 
Si       2.12413652       1.13389554       3.91392737       14       0.05219647      -0.01180773      -0.13434938 
Si       4.01570860       5.00594958       1.11729973       14      -0.05219647       0.01180773      -0.13434938 
Si       4.20381811       0.94578604      -0.28101409       14      -0.01180773      -0.05219647      -0.13434938 
Si       5.00594958       4.01570860       4.47595555       14       0.01180773      -0.05219647       0.13434938 
Si       5.19405908       1.93602701       3.07764172       14       0.05219647       0.01180773       0.13434938 
12
Lattice="6.139809482785628 1.1073714272375696e-41 -8.966013302589695e-26 -2.4858596304457455e-42 6.139809482785628 2.1942129990691156e-16 -4.357952501874536e-26 3.516108490105765e-16 5.596360313821863" Properties=species:S:1:pos:R:3:Z:I:1:forces:R:3 stress="0.0025259719491126124 -2.2825066567789128e-61 2.0240845314248565e-29 -2.2825066567789128e-61 0.002525971949112613 4.097513155242004e-72 2.0240845314248565e-29 4.097513155242004e-72 -8.822791810508086e-05" cutoff=-1.0 energy=-49.8871323856 nneightol=1.2 pbc="T T T"
Si       0.53724594       0.53724594       0.00000000       14      -0.00474711      -0.00474711      -0.00000000 
Si      -0.53724594      -0.53724594       2.79818016       14       0.00474711       0.00474711       0.00000000 
Si       2.53265880       3.60715069       4.19727024       14       0.00474711      -0.00474711      -0.00000000 
Si       3.60715069       2.53265880       1.39909008       14      -0.00474711       0.00474711       0.00000000 
Si       0.94209968       4.20324040       0.28778409       14      -0.00508365      -0.01225527       0.03803443 
Si       1.13333565       2.12780505       1.68687417       14      -0.01225527       0.00508365       0.03803443 
Si       1.93656908       5.19770980       2.51039607       14       0.01225527       0.00508365      -0.03803443 
Si       2.12780505       1.13333565       3.90948615       14       0.00508365      -0.01225527      -0.03803443 
Si       4.01200443       5.00647383       1.11130599       14      -0.00508365       0.01225527      -0.03803443 
Si       4.20324040       0.94209968      -0.28778409       14      -0.01225527      -0.00508365      -0.03803443 
Si       5.00647383       4.01200443       4.48505433       14       0.01225527      -0.00508365       0.03803443 
Si       5.19770980       1.93656908       3.08596424       14       0.00508365       0.01225527       0.03803443 
12
Lattice="6.130985338127985 1.1032995709591746e-41 -9.435232826250306e-26 -2.5689944131586074e-42 6.130985338127985 2.1969229071503783e-16 -5.010937697598602e-26 3.536525660414297e-16 5.607370785942604" Properties=species:S:1:pos:R:3:Z:I:1:forces:R:3 stress="-0.000153054986082601 3.184232662921415e-46 -1.5679621338818722e-30 3.184232662921415e-46 -0.00015305498608260095 -5.439244312032775e-21 -1.5679621338818722e-30 -5.439244312032775e-21 2.6783624254312926e-05" cutoff=-1.0 energy=-49.8882786038 nneightol=1.2 pbc="T T T"
Si       0.53713966       0.53713966       0.00000000       14       0.01194321       0.01194321       0.00000000 
Si      -0.53713966      -0.53713966       2.80368540       14      -0.01194321      -0.01194321      -0.00000000 
Si       2.52835300       3.60263234       4.20552809       14      -0.01194321       0.01194321       0.00000000 
Si       3.60263234       2.52835300       1.40184269       14       0.01194321      -0.01194321      -0.00000000 
Si       0.94107919       4.19541572       0.29079821       14       0.00486415       0.00486432      -0.00347446 
Si       1.12992305       2.12441347       1.69264090       14       0.00486432      -0.00486415      -0.00347446 
Si       1.93556962       5.18990615       2.51288719       14      -0.00486432      -0.00486415       0.00347446 
Si       2.12441347       1.12992305       3.91472988       14      -0.00486415       0.00486432       0.00347446 
Si       4.00657187       5.00106229       1.11104448       14       0.00486415      -0.00486432       0.00347446 
Si       4.19541572       0.94107919      -0.29079821       14       0.00486432       0.00486415       0.00347446 
Si       5.00106229       4.00657186       4.49632630       14      -0.00486432       0.00486415      -0.00347446 
Si       5.18990615       1.93556962       3.09448360       14      -0.00486415      -0.00486432      -0.00347446 
12
Lattice="6.130192951853379 1.105118741550084e-41 -9.423157955021402e-26 -2.5420719008586602e-42 6.130192951853379 2.2024038119053437e-16 -5.011257018950833e-26 3.5441305397932203e-16 5.608707037154758" Properties=species:S:1:pos:R:3:Z:I:1:forces:R:3 stress="0.00016649492167416887 1.1890209249593906e-63 5.244931416781152e-31 1.1890209249593906e-63 0.00016649492167416887 1.0874855719263388e-73 5.244931416781152e-31 1.0874855719263388e-73 0.00012876901990299016" cutoff=-1.0 energy=-49.888337887 nneightol=1.2 pbc="T T T"
Si       0.53821257       0.53821257       0.00000000       14      -0.00421629      -0.00421629      -0.00000000 
Si      -0.53821257      -0.53821257       2.80435352       14       0.00421629       0.00421629       0.00000000 
Si       2.52688390       3.60330905       4.20653028       14       0.00421629      -0.00421629      -0.00000000 
Si       3.60330905       2.52688390       1.40217676       14      -0.00421629       0.00421629       0.00000000 
Si       0.94111193       4.19579767       0.29079249       14      -0.00035008       0.00155890      -0.00008417 
Si       1.13070119       2.12398454       1.69296925       14       0.00155890       0.00035008      -0.00008417 
Si       1.93439528       5.18908102       2.51356103       14      -0.00155890       0.00035008       0.00008417 
Si       2.12398454       1.13070118       3.91573779       14       0.00035008       0.00155890       0.00008417 
Si       4.00620841       4.99949177       1.11138427       14      -0.00035008      -0.00155890       0.00008417 
Si       4.19579767       0.94111193      -0.29079249       14       0.00155890      -0.00035008       0.00008417 
Si       4.99949177       4.00620841       4.49732277       14      -0.00155890      -0.00035008      -0.00008417 
Si       5.18908102       1.93439528       3.09514600       14       0.00035008      -0.00155890      -0.00008417 
12
Lattice="6.130089693097944 1.1048609924499044e-41 -9.420245022960288e-26 -2.5409251423968675e-42 6.130089693097944 2.2017784329762912e-16 -5.009228418924171e-26 3.543032332239513e-16 5.608591109510487" Properties=species:S:1:pos:R:3:Z:I:1:forces:R:3 stress="2.1769273997453606e-05 -1.4299033063300384e-63 7.64238615159797e-32 -1.4299033063300384e-63 2.1769273997453613e-05 1.5838863779077388e-74 7.64238615159797e-32 1.5838863779077388e-74 1.5783739169427494e-05" cutoff=-1.0 energy=-49.8883425432 nneightol=1.2 pbc="T T T"
Si       0.53801291       0.53801291       0.00000000       14      -0.00023343      -0.00023343      -0.00000000 
Si      -0.53801291      -0.53801291       2.80429556       14       0.00023343       0.00023343       0.00000000 
Si       2.52703193       3.60305776       4.20644333       14       0.00023343      -0.00023343      -0.00000000 
Si       3.60305776       2.52703193       1.40214778       14      -0.00023343       0.00023343       0.00000000 
Si       0.94103701       4.19576590       0.29063862       14       0.00011167       0.00022125       0.00017427 
Si       1.13072105       2.12400783       1.69278639       14       0.00022125      -0.00011167       0.00017427 
Si       1.93432379       5.18905268       2.51365694       14      -0.00022125      -0.00011167      -0.00017427 
Si       2.12400783       1.13072105       3.91580471       14      -0.00011167       0.00022125      -0.00017427 
Si       4.00608186       4.99936865       1.11150916       14       0.00011167      -0.00022125      -0.00017427 
Si       4.19576590       0.94103701      -0.29063862       14       0.00022125       0.00011167      -0.00017427 
Si       4.99936865       4.00608186       4.49708195       14      -0.00022125       0.00011167       0.00017427 
Si       5.18905269       1.93432379       3.09493417       14      -0.00011167      -0.00022125       0.00017427 
