12
Lattice="6.130089693097944 1.1048609924499044e-41 -9.420245022960288e-26 -2.5409251423968675e-42 6.130089693097944 2.2017784329762912e-16 -5.009228418924171e-26 3.543032332239513e-16 5.608591109510487" Properties=species:S:1:pos:R:3:Z:I:1:forces:R:3 cutoff=-1.0 stress="2.1769273997453606e-05 -1.4299033063300384e-63 7.64238615159797e-32 -1.4299033063300384e-63 2.1769273997453613e-05 1.5838863779077388e-74 7.64238615159797e-32 1.5838863779077388e-74 1.5783739169427494e-05" Minim_Constant_Volume=T nneightol=1.2 pbc="T T T" energy=-49.8883425432 Minim_Hydrostatic_Strain=F
Si       0.53801291       0.53801291       0.00000000       14      -0.00023343      -0.00023343      -0.00000000 
Si      -0.53801291      -0.53801291       2.80429556       14       0.00023343       0.00023343       0.00000000 
Si       2.52703193       3.60305776       4.20644333       14       0.00023343      -0.00023343      -0.00000000 
Si       3.60305776       2.52703193       1.40214778       14      -0.00023343       0.00023343       0.00000000 
Si       0.94103701       4.19576590       0.29063862       14       0.00011167       0.00022125       0.00017427 
Si       1.13072105       2.12400783       1.69278639       14       0.00022125      -0.00011167       0.00017427 
Si       1.93432379       5.18905268       2.51365694       14      -0.00022125      -0.00011167      -0.00017427 
Si       2.12400783       1.13072105       3.91580471       14      -0.00011167       0.00022125      -0.00017427 
Si       4.00608186       4.99936865       1.11150916       14       0.00011167      -0.00022125      -0.00017427 
Si       4.19576590       0.94103701      -0.29063862       14       0.00022125       0.00011167      -0.00017427 
Si       4.99936865       4.00608186       4.49708195       14      -0.00022125       0.00011167       0.00017427 
Si       5.18905269       1.93432379       3.09493417       14      -0.00011167      -0.00022125       0.00017427 
