4
Lattice="3.953877376094662 1.1682055203646712e-35 0.0 1.1682055203646712e-35 3.953877376094662 1.1682055203646712e-35 0.0 1.1682055203646712e-35 3.953877376094662" Properties=species:S:1:pos:R:3:Z:I:1:forces:R:3 stress="4.0230811653732485e-05 2.217515164394913e-34 -6.55183054538029e-70 2.217515164394913e-34 4.02308116537325e-05 -6.368823172597326e-56 -6.55183054538029e-70 -6.368823172597326e-56 4.0230811653732485e-05" energy=-651.131453354 Minim_Constant_Volume=T Minim_Hydrostatic_Strain=F pbc="T T T"
Si       0.00000000       0.00000000       0.00000000       14       0.00000000      -0.00000000       0.00000000 
Si       1.97693869       1.97693869       0.00000000       14       0.00000000       0.00000000      -0.00000000 
Si       1.97693869       0.00000000       1.97693869       14       0.00000000      -0.00000000       0.00000000 
Si       0.00000000       1.97693869       1.97693869       14      -0.00000000       0.00000000       0.00000000 
4
Lattice="3.92064994485626 1.1583882031066993e-35 0.0 1.1583882031066993e-35 3.92064994485626 1.1583882031066993e-35 0.0 1.1583882031066993e-35 3.92064994485626" Properties=species:S:1:pos:R:3:Z:I:1:forces:R:3 stress="-0.09413738262952476 -3.3411277525231636e-35 1.974327230449606e-70 -3.3411277525231636e-35 -0.09413738262952476 3.341127752523163e-35 1.974327230449606e-70 3.341127752523163e-35 -0.09413738262952476" energy=-651.061054867 Minim_Constant_Volume=T Minim_Hydrostatic_Strain=F pbc="T T T"
Si       0.00000000       0.00000000       0.00000000       14      -0.00000000      -0.00000000      -0.00000000 
Si       1.96032497       1.96032497       0.00000000       14       0.00000000       0.00000000      -0.00000000 
Si       1.96032497       0.00000000       1.96032497       14       0.00000000      -0.00000000      -0.00000000 
Si       0.00000000       1.96032497       1.96032497       14      -0.00000000       0.00000000      -0.00000000 
4
Lattice="3.88684955649915 1.148401600965728e-35 0.0 1.148401600965728e-35 3.88684955649915 1.148401600965728e-35 0.0 1.148401600965728e-35 3.88684955649915" Properties=species:S:1:pos:R:3:Z:I:1:forces:R:3 stress="-0.19909577279922408 -2.719591921180992e-34 7.030850337791032e-70 -2.719591921180992e-34 -0.19909577279922408 -3.39948990147624e-35 7.030850337791032e-70 -3.39948990147624e-35 -0.19909577279922408" energy=-650.834790612 Minim_Constant_Volume=T Minim_Hydrostatic_Strain=F pbc="T T T"
Si       0.00000000       0.00000000       0.00000000       14      -0.00000000      -0.00000000      -0.00000000 
Si       1.94342478       1.94342478       0.00000000       14      -0.00000000       0.00000000       0.00000000 
Si       1.94342478       0.00000000       1.94342478       14       0.00000000      -0.00000000      -0.00000000 
Si       0.00000000       1.94342478       1.94342478       14       0.00000000       0.00000000       0.00000000 
4
Lattice="3.8524508537552586 1.1382382219287967e-35 0.0 1.1382382219287967e-35 3.8524508537552586 1.1382382219287967e-35 0.0 1.1382382219287967e-35 3.8524508537552586" Properties=species:S:1:pos:R:3:Z:I:1:forces:R:3 stress="-0.2950364415165272 2.7683754595643845e-34 -7.66818046569215e-70 2.7683754595643845e-34 -0.2950364415165272 1.7302346622277403e-35 -7.66818046569215e-70 1.7302346622277403e-35 -0.2950364415165272" energy=-650.450297447 Minim_Constant_Volume=T Minim_Hydrostatic_Strain=F pbc="T T T"
Si       0.00000000       0.00000000       0.00000000       14      -0.00000000      -0.00000000      -0.00000000 
Si       1.92622543       1.92622543       0.00000000       14       0.00000000      -0.00000000      -0.00000000 
Si       1.92622543       0.00000000       1.92622543       14      -0.00000000      -0.00000000      -0.00000000 
Si       0.00000000       1.92622543       1.92622543       14      -0.00000000      -0.00000000      -0.00000000 
4
Lattice="3.817426634651757 1.1278900289497859e-35 0.0 1.1278900289497859e-35 3.817426634651757 1.1278900289497859e-35 0.0 1.1278900289497859e-35 3.817426634651757" Properties=species:S:1:pos:R:3:Z:I:1:forces:R:3 stress="-0.35811311919432876 2.7533273552280045e-34 1.23650960889601e-70 2.7533273552280045e-34 -0.35811311919432876 3.1718331132226615e-34 1.23650960889601e-70 3.1718331132226615e-34 -0.35811311919432876" energy=-649.939991252 Minim_Constant_Volume=T Minim_Hydrostatic_Strain=F pbc="T T T"
Si       0.00000000       0.00000000       0.00000000       14       0.00000000       0.00000000       0.00000000 
Si       1.90871332       1.90871332       0.00000000       14      -0.00000000       0.00000000      -0.00000000 
Si       1.90871332       0.00000000       1.90871332       14      -0.00000000      -0.00000000       0.00000000 
Si       0.00000000       1.90871332       1.90871332       14       0.00000000       0.00000000      -0.00000000 
4
Lattice="3.781747662794876 1.1173483838962124e-35 0.0 1.1173483838962124e-35 3.781747662794876 1.1173483838962124e-35 0.0 1.1173483838962124e-35 3.781747662794876" Properties=species:S:1:pos:R:3:Z:I:1:forces:R:3 stress="-0.3706675584432828 -5.027500925916053e-34 1.2076157927248136e-85 -5.027500925916053e-34 -0.3706675584432828 -5.027500925916053e-34 1.2076157927248136e-85 -5.027500925916053e-34 -0.3706675584432828" energy=-649.369842211 Minim_Constant_Volume=T Minim_Hydrostatic_Strain=F pbc="T T T"
Si       0.00000000       0.00000000       0.00000000       14       0.00000000      -0.00000000      -0.00000000 
Si       1.89087383       1.89087383       0.00000000       14      -0.00000000       0.00000000      -0.00000000 
Si       1.89087383       0.00000000       1.89087383       14       0.00000000      -0.00000000       0.00000000 
Si       0.00000000       1.89087383       1.89087383       14       0.00000000       0.00000000      -0.00000000 
4
Lattice="3.9865555305341895 1.1778605492844834e-35 0.0 1.1778605492844834e-35 3.9865555305341895 1.1778605492844834e-35 0.0 1.1778605492844834e-35 3.9865555305341895" Properties=species:S:1:pos:R:3:Z:I:1:forces:R:3 stress="0.07288535709421708 3.2315701060513073e-35 -4.773969547158007e-71 3.2315701060513073e-35 0.07288535709421706 1.615785053025654e-35 -4.773969547158007e-71 1.615785053025654e-35 0.07288535709421708" energy=-651.072079778 Minim_Constant_Volume=T Minim_Hydrostatic_Strain=F pbc="T T T"
Si       0.00000000       0.00000000       0.00000000       14      -0.00000000       0.00000000       0.00000000 
Si       1.99327777       1.99327777       0.00000000       14       0.00000000      -0.00000000       0.00000000 
Si       1.99327777       0.00000000       1.99327777       14      -0.00000000       0.00000000       0.00000000 
Si       0.00000000       1.99327777       1.99327777       14      -0.00000000      -0.00000000      -0.00000000 
4
Lattice="4.0187065603552865 1.187359834909652e-35 0.0 1.187359834909652e-35 4.0187065603552865 1.187359834909652e-35 0.0 1.187359834909652e-35 4.0187065603552865" Properties=species:S:1:pos:R:3:Z:I:1:forces:R:3 stress="0.11510834980061356 -1.311778713068756e-34 3.5234162416893127e-71 -1.311778713068756e-34 0.11510834980061356 -1.192526102789778e-34 3.5234162416893127e-71 -1.192526102789778e-34 0.11510834980061356" energy=-650.921573905 Minim_Constant_Volume=T Minim_Hydrostatic_Strain=F pbc="T T T"
Si       0.00000000       0.00000000       0.00000000       14       0.00000000       0.00000000      -0.00000000 
Si       2.00935328       2.00935328       0.00000000       14      -0.00000000      -0.00000000      -0.00000000 
Si       2.00935328       0.00000000       2.00935328       14      -0.00000000       0.00000000      -0.00000000 
Si       0.00000000       2.00935328       2.00935328       14      -0.00000000      -0.00000000      -0.00000000 
4
Lattice="4.0503512219976185 1.1967095099006246e-35 0.0 1.1967095099006246e-35 4.0503512219976185 1.1967095099006246e-35 0.0 1.1967095099006246e-35 4.0503512219976185" Properties=species:S:1:pos:R:3:Z:I:1:forces:R:3 stress="0.13498583948417142 2.3479298263569553e-35 -2.3271258930452535e-86 2.3479298263569553e-35 0.13498583948417145 2.3479298263569553e-35 -2.3271258930452535e-86 2.3479298263569553e-35 0.13498583948417142" energy=-650.726845243 Minim_Constant_Volume=T Minim_Hydrostatic_Strain=F pbc="T T T"
Si       0.00000000       0.00000000       0.00000000       14       0.00000000      -0.00000000       0.00000000 
Si       2.02517561       2.02517561       0.00000000       14       0.00000000      -0.00000000      -0.00000000 
Si       2.02517561       0.00000000       2.02517561       14      -0.00000000      -0.00000000       0.00000000 
Si       0.00000000       2.02517561       2.02517561       14      -0.00000000      -0.00000000      -0.00000000 
4
Lattice="4.081508994295316 1.2059153294388083e-35 0.0 1.2059153294388083e-35 4.081508994295316 1.2059153294388083e-35 0.0 1.2059153294388083e-35 4.081508994295316" Properties=species:S:1:pos:R:3:Z:I:1:forces:R:3 stress="0.14807326789937084 1.5414793332847312e-35 -6.717780119836827e-70 1.5414793332847312e-35 0.14807326789937084 -2.1195340832665053e-34 -6.717780119836827e-70 -2.1195340832665053e-34 0.14807326789937084" energy=-650.507836628 Minim_Constant_Volume=T Minim_Hydrostatic_Strain=F pbc="T T T"
Si       0.00000000       0.00000000       0.00000000       14       0.00000000       0.00000000       0.00000000 
Si       2.04075450       2.04075450       0.00000000       14       0.00000000      -0.00000000       0.00000000 
Si       2.04075450       0.00000000       2.04075450       14      -0.00000000       0.00000000       0.00000000 
Si       0.00000000       2.04075450       2.04075450       14      -0.00000000      -0.00000000       0.00000000 
4
Lattice="4.1121981841727075 1.2149827024552422e-35 0.0 1.2149827024552422e-35 4.1121981841727075 1.2149827024552422e-35 0.0 1.2149827024552422e-35 4.1121981841727075" Properties=species:S:1:pos:R:3:Z:I:1:forces:R:3 stress="0.1658627509378459 -4.8593829618622074e-34 4.486701803727717e-71 -4.8593829618622074e-34 0.1658627509378459 -4.707527244304013e-34 4.486701803727717e-71 -4.707527244304013e-34 0.1658627509378459" energy=-650.265121167 Minim_Constant_Volume=T Minim_Hydrostatic_Strain=F pbc="T T T"
Si       0.00000000       0.00000000       0.00000000       14      -0.00000000      -0.00000000      -0.00000000 
Si       2.05609909       2.05609909       0.00000000       14       0.00000000      -0.00000000      -0.00000000 
Si       2.05609909       0.00000000       2.05609909       14       0.00000000      -0.00000000      -0.00000000 
Si       0.00000000       2.05609909       2.05609909       14       0.00000000      -0.00000000      -0.00000000 
4
Lattice="4.142436021456102 1.223916719643514e-35 0.0 1.223916719643514e-35 4.142436021456102 1.223916719643514e-35 0.0 1.223916719643514e-35 4.142436021456102" Properties=species:S:1:pos:R:3:Z:I:1:forces:R:3 stress="0.18135597919836305 -4.4894057424855226e-35 2.2107196188553384e-70 -4.4894057424855226e-35 0.18135597919836305 2.992937161657015e-35 2.2107196188553384e-70 2.992937161657015e-35 0.18135597919836305" energy=-649.996500621 Minim_Constant_Volume=T Minim_Hydrostatic_Strain=F pbc="T T T"
Si       0.00000000       0.00000000       0.00000000       14       0.00000000      -0.00000000      -0.00000000 
Si       2.07121801       2.07121801       0.00000000       14       0.00000000       0.00000000      -0.00000000 
Si       2.07121801       0.00000000       2.07121801       14      -0.00000000      -0.00000000      -0.00000000 
Si       0.00000000       2.07121801       2.07121801       14       0.00000000       0.00000000      -0.00000000 
