2
Lattice="3.1280020058978657 0.0 0.0 0.0 3.1280020058978657 0.0 0.0 0.0 3.1280020058978657" Properties=species:S:1:pos:R:3:Z:I:1:forces:R:3 stress="2.6155064940626388e-06 -1.7199867728792185e-30 -2.5799801593188283e-30 -1.7199867728792185e-30 2.6155064940626366e-06 0.0 -2.5799801593188283e-30 0.0 2.6155064940626366e-06" energy=-325.035304496 Minim_Constant_Volume=T Minim_Hydrostatic_Strain=F pbc="T T T"
Si       0.00000000       0.00000000       0.00000000       14       0.00000000      -0.00000000       0.00000000 
Si       1.56400100       1.56400100       1.56400100       14      -0.00000000       0.00000000      -0.00000000 
2
Lattice="3.101715031953516 0.0 0.0 0.0 3.101715031953516 0.0 0.0 0.0 3.101715031953516" Properties=species:S:1:pos:R:3:Z:I:1:forces:R:3 stress="-0.033976802358497 -2.798822431412867e-29 -1.749264019633042e-29 -2.798822431412867e-29 -0.033976802358497 0.0 -1.749264019633042e-29 0.0 -0.03397680235849701" energy=-325.02260071 Minim_Constant_Volume=T Minim_Hydrostatic_Strain=F pbc="T T T"
Si       0.00000000       0.00000000       0.00000000       14       0.00000000      -0.00000000       0.00000000 
Si       1.55085752       1.55085752       1.55085752       14      -0.00000000       0.00000000      -0.00000000 
2
Lattice="3.0749747786466224 0.0 0.0 0.0 3.0749747786466224 0.0 0.0 0.0 3.0749747786466224" Properties=species:S:1:pos:R:3:Z:I:1:forces:R:3 stress="-0.06436575425376749 1.0678918874504245e-29 7.119279249669496e-30 1.0678918874504245e-29 -0.0643657542537675 0.0 7.119279249669496e-30 0.0 -0.06436575425376752" energy=-324.984518951 Minim_Constant_Volume=T Minim_Hydrostatic_Strain=F pbc="T T T"
Si       0.00000000       0.00000000       0.00000000       14       0.00000000      -0.00000000       0.00000000 
Si       1.53748739       1.53748739       1.53748739       14       0.00000000       0.00000000      -0.00000000 
2
Lattice="3.0477611852676962 0.0 0.0 0.0 3.0477611852676962 0.0 0.0 0.0 3.0477611852676962" Properties=species:S:1:pos:R:3:Z:I:1:forces:R:3 stress="-0.08843854560291285 -3.623491784019632e-30 4.52936473002454e-31 -3.623491784019632e-30 -0.08843854560291285 0.0 4.52936473002454e-31 0.0 -0.08843854560291285" energy=-324.925599363 Minim_Constant_Volume=T Minim_Hydrostatic_Strain=F pbc="T T T"
Si       0.00000000       0.00000000       0.00000000       14       0.00000000       0.00000000       0.00000000 
Si       1.52388059       1.52388059       1.52388059       14       0.00000000       0.00000000      -0.00000000 
2
Lattice="3.0200527317195056 0.0 0.0 0.0 3.0200527317195056 0.0 0.0 0.0 3.0200527317195056" Properties=species:S:1:pos:R:3:Z:I:1:forces:R:3 stress="-0.10219795167463028 0.0 -4.612858252436055e-31 0.0 -0.10219795167463026 0.0 -4.612858252436055e-31 0.0 -0.10219795167463026" energy=-324.851902419 Minim_Constant_Volume=T Minim_Hydrostatic_Strain=F pbc="T T T"
Si       0.00000000       0.00000000       0.00000000       14       0.00000000      -0.00000000       0.00000000 
Si       1.51002637       1.51002637       1.51002637       14       0.00000000       0.00000000      -0.00000000 
2
Lattice="2.991826288428305 0.0 0.0 0.0 2.991826288428305 0.0 0.0 0.0 2.991826288428305" Properties=species:S:1:pos:R:3:Z:I:1:forces:R:3 stress="-0.1027628681811981 0.0 -4.700309045423869e-31 0.0 -0.10276286818119806 0.0 -4.700309045423869e-31 0.0 -0.10276286818119806" energy=-324.772571307 Minim_Constant_Volume=T Minim_Hydrostatic_Strain=F pbc="T T T"
Si       0.00000000       0.00000000       0.00000000       14      -0.00000000       0.00000000       0.00000000 
Si       1.49591314       1.49591314       1.49591314       14       0.00000000      -0.00000000      -0.00000000 
2
Lattice="3.153854434517401 0.0 0.0 0.0 3.153854434517401 0.0 0.0 0.0 3.153854434517401" Properties=species:S:1:pos:R:3:Z:I:1:forces:R:3 stress="0.027826956766402462 2.537856854995293e-30 4.229761424992155e-31 2.537856854995293e-30 0.02782695676640243 0.0 4.229761424992155e-31 0.0 0.02782695676640243" energy=-325.024358752 Minim_Constant_Volume=T Minim_Hydrostatic_Strain=F pbc="T T T"
Si       0.00000000       0.00000000       0.00000000       14      -0.00000000       0.00000000      -0.00000000 
Si       1.57692722       1.57692722       1.57692722       14       0.00000000       0.00000000      -0.00000000 
2
Lattice="3.179289842904144 0.0 0.0 0.0 3.179289842904144 0.0 0.0 0.0 3.179289842904144" Properties=species:S:1:pos:R:3:Z:I:1:forces:R:3 stress="0.05129806430471089 1.456823574770146e-30 2.0811765353859224e-31 1.456823574770146e-30 0.051298064304710886 0.0 2.0811765353859224e-31 0.0 0.05129806430471089" energy=-324.993830803 Minim_Constant_Volume=T Minim_Hydrostatic_Strain=F pbc="T T T"
Si       0.00000000       0.00000000       0.00000000       14      -0.00000000      -0.00000000       0.00000000 
Si       1.58964492       1.58964492       1.58964492       14       0.00000000      -0.00000000      -0.00000000 
2
Lattice="3.2043246519479553 0.0 0.0 0.0 3.2043246519479553 0.0 0.0 0.0 3.2043246519479553" Properties=species:S:1:pos:R:3:Z:I:1:forces:R:3 stress="0.07103122896141582 3.278054174187404e-30 4.097567717734255e-31 3.278054174187404e-30 0.07103122896141582 0.0 4.097567717734255e-31 0.0 0.07103122896141582" energy=-324.946811244 Minim_Constant_Volume=T Minim_Hydrostatic_Strain=F pbc="T T T"
Si       0.00000000       0.00000000       0.00000000       14       0.00000000       0.00000000       0.00000000 
Si       1.60216233       1.60216233       1.60216233       14       0.00000000      -0.00000000      -0.00000000 
2
Lattice="3.2289742717959973 0.0 0.0 0.0 3.2289742717959973 0.0 0.0 0.0 3.2289742717959973" Properties=species:S:1:pos:R:3:Z:I:1:forces:R:3 stress="0.08758699826922599 -3.228196626347607e-30 -5.649344096108313e-30 -3.228196626347607e-30 0.08758699826922597 0.0 -5.649344096108313e-30 0.0 0.08758699826922595" energy=-324.885943211 Minim_Constant_Volume=T Minim_Hydrostatic_Strain=F pbc="T T T"
Si       0.00000000       0.00000000       0.00000000       14      -0.00000000      -0.00000000      -0.00000000 
Si       1.61448714       1.61448714       1.61448714       14       0.00000000       0.00000000       0.00000000 
2
Lattice="3.2532531854710287 0.0 0.0 0.0 3.2532531854710287 0.0 0.0 0.0 3.2532531854710287" Properties=species:S:1:pos:R:3:Z:I:1:forces:R:3 stress="0.10149203666448324 -3.975240735699236e-31 3.975240735699236e-31 -3.975240735699236e-31 0.10149203666448328 0.0 3.975240735699236e-31 0.0 0.10149203666448328" energy=-324.813454322 Minim_Constant_Volume=T Minim_Hydrostatic_Strain=F pbc="T T T"
Si       0.00000000       0.00000000       0.00000000       14      -0.00000000      -0.00000000      -0.00000000 
Si       1.62662659       1.62662659       1.62662659       14       0.00000000       0.00000000       0.00000000 
2
Lattice="3.2771750238791513 0.0 0.0 0.0 3.2771750238791513 0.0 0.0 0.0 3.2771750238791513" Properties=species:S:1:pos:R:3:Z:I:1:forces:R:3 stress="0.11323687074691825 0.0 -1.5669671074251934e-30 0.0 0.11323687074691825 0.0 -1.5669671074251934e-30 0.0 0.11323687074691823" energy=-324.731182459 Minim_Constant_Volume=T Minim_Hydrostatic_Strain=F pbc="T T T"
Si       0.00000000       0.00000000       0.00000000       14      -0.00000000       0.00000000       0.00000000 
Si       1.63858751       1.63858751       1.63858751       14       0.00000000      -0.00000000      -0.00000000 
