1
Lattice="2.657707794742957 -9.438472109146757e-18 5.175876859551439e-30 1.3288538973714785 2.3016424660833192 2.848927250151627e-30 5.516645766000245e-30 3.1735368091806995e-31 2.47592086770401" Properties=species:S:1:pos:R:3:Z:I:1:forces:R:3 stress="-1.261931204460357e-05 -1.8426945507381567e-21 -3.1978401090724435e-31 -1.8426945507381567e-21 -1.261931204460356e-05 1.41303724275152e-34 -3.1978401090724435e-31 1.41303724275152e-34 3.855124617761292e-05" energy=-162.836419634 Minim_Constant_Volume=T Minim_Hydrostatic_Strain=F pbc="T T T"
Si       0.00000000       0.00000000       0.00000000       14       0.00000000       0.00000000       0.00000000 
1
Lattice="2.633955708872486 -1.4003439413631587e-17 6.853865579063824e-30 1.316977854436243 2.281072556326621 2.8417749405790806e-30 7.065936336817059e-30 -5.936387862171019e-31 2.4577546349145902" Properties=species:S:1:pos:R:3:Z:I:1:forces:R:3 stress="-0.018246985179075876 -9.91809109793866e-18 -2.4755009034656254e-30 -9.91809109793866e-18 -0.018246985179075907 4.4237548088798315e-30 -2.4755009034656254e-30 4.4237548088798315e-30 -0.018244731869259165" energy=-162.833094747 Minim_Constant_Volume=T Minim_Hydrostatic_Strain=F pbc="T T T"
Si       0.00000000       0.00000000       0.00000000       14       0.00000000       0.00000000       0.00000000 
1
Lattice="2.6091170501620566 1.579775052857352e-17 2.71957278921681e-30 1.3045585250810283 2.2595616468874575 2.84980568586332e-30 3.186359483685907e-30 1.6434560481515037e-30 2.4405450696254434" Properties=species:S:1:pos:R:3:Z:I:1:forces:R:3 stress="-0.03810662712501808 -8.315555227518697e-18 2.783460460741818e-30 -8.315555227518697e-18 -0.03810662712501818 1.4291300590459279e-30 2.783460460741818e-30 1.4291300590459279e-30 -0.038102248733861956" energy=-162.822422082 Minim_Constant_Volume=T Minim_Hydrostatic_Strain=F pbc="T T T"
Si       0.00000000       0.00000000       0.00000000       14       0.00000000       0.00000000       0.00000000 
1
Lattice="2.58400484913255 1.7216498409287645e-17 5.144312912516449e-30 1.292002424566275 2.237813842850963 2.8665933865712008e-30 5.442338375394224e-30 3.4803953246955543e-31 2.4227327359314828" Properties=species:S:1:pos:R:3:Z:I:1:forces:R:3 stress="-0.05914207127665535 -8.966451492237538e-18 -2.3544120865180436e-30 -8.966451492237538e-18 -0.0591420712766554 -2.2375029111064878e-31 -2.3544120865180436e-30 -2.2375029111064878e-31 -0.05915958473199084" energy=-162.804051681 Minim_Constant_Volume=T Minim_Hydrostatic_Strain=F pbc="T T T"
Si       0.00000000       0.00000000       0.00000000       14       0.00000000       0.00000000       0.00000000 
1
Lattice="2.558498030656532 4.209589370616024e-17 2.779857573525168e-30 1.279249015328266 2.2157242900810137 3.3728343163279603e-31 3.208051821216021e-30 -1.1113922671170217e-30 2.4044887448103536" Properties=species:S:1:pos:R:3:Z:I:1:forces:R:3 stress="-0.08564897851775337 -1.82560918402784e-17 -1.0714111134626571e-29 -1.82560918402784e-17 -0.08564897851775348 -6.458256395627472e-30 -1.0714111134626571e-29 -6.458256395627472e-30 -0.08565148077145299" energy=-162.776890978 Minim_Constant_Volume=T Minim_Hydrostatic_Strain=F pbc="T T T"
Si       0.00000000       0.00000000       0.00000000       14       0.00000000       0.00000000       0.00000000 
1
Lattice="2.532932016411796 7.073714388641216e-17 5.372726846504972e-30 1.266466008205898 2.1935834722715573 3.4724905300239993e-31 5.633822147728432e-30 -2.5055518991319762e-30 2.385127782351645" Properties=species:S:1:pos:R:3:Z:I:1:forces:R:3 stress="-0.11599237568463101 1.7899170200348194e-17 1.169870131169224e-29 1.7899170200348194e-17 -0.11599237568463125 1.2516408838421032e-29 1.169870131169224e-29 1.2516408838421032e-29 -0.11599416525587321" energy=-162.738817207 Minim_Constant_Volume=T Minim_Hydrostatic_Strain=F pbc="T T T"
Si       0.00000000       0.00000000       0.00000000       14       0.00000000       0.00000000       0.00000000 
1
Lattice="2.680181365768487 -1.1263889125949876e-17 4.827033210752344e-30 1.3400906828842436 2.321105149505182 3.9229324782149286e-30 5.200303432806713e-30 1.6607810834175503e-30 2.4954373570436696" Properties=species:S:1:pos:R:3:Z:I:1:forces:R:3 stress="0.01498611080221425 -3.549314035225739e-18 -7.1377590584450055e-31 -3.549314035225739e-18 0.01498611080221426 4.192968627933211e-31 -7.1377590584450055e-31 4.192968627933211e-31 0.015100904713415506" energy=-162.833483561 Minim_Constant_Volume=T Minim_Hydrostatic_Strain=F pbc="T T T"
Si       0.00000000       0.00000000       0.00000000       14       0.00000000       0.00000000       0.00000000 
1
Lattice="2.7022661750583534 -1.3438743951431225e-17 8.899193601966666e-30 1.3511330875291767 2.3402311553879405 6.412935608197513e-30 8.999950030766792e-30 2.1499627458982905e-30 2.514688698656056" Properties=species:S:1:pos:R:3:Z:I:1:forces:R:3 stress="0.027112656880428215 6.3771157229271174e-18 4.746297230675114e-32 6.3771157229271174e-18 0.027112656880428257 -7.212204415978885e-31 4.746297230675114e-32 -7.212204415978885e-31 0.02715242240371824" energy=-162.825430438 Minim_Constant_Volume=T Minim_Hydrostatic_Strain=F pbc="T T T"
Si       0.00000000       0.00000000       0.00000000       14       0.00000000       0.00000000       0.00000000 
1
Lattice="2.7238766434886137 -4.89893866995267e-17 1.113109110001737e-29 1.3619383217443068 2.3589463700362265 9.123410472590986e-30 1.1085717297291184e-29 3.864455391672513e-30 2.5338727084870283" Properties=species:S:1:pos:R:3:Z:I:1:forces:R:3 stress="0.037167357811279216 2.317004424541299e-18 -4.597801213901181e-31 2.317004424541299e-18 0.037167357811279306 3.0642662334296183e-31 -4.597801213901181e-31 3.0642662334296183e-31 0.03718564993704345" energy=-162.813219827 Minim_Constant_Volume=T Minim_Hydrostatic_Strain=F pbc="T T T"
Si       0.00000000       0.00000000       0.00000000       14       0.00000000       0.00000000       0.00000000 
1
Lattice="2.7446064778933374 -2.7285610872392697e-17 1.229000590066872e-29 1.3723032389466687 2.376898933246962 9.848283605892527e-30 1.2166802083264277e-29 4.020037227211408e-30 2.553781454945786" Properties=species:S:1:pos:R:3:Z:I:1:forces:R:3 stress="0.046317622760184675 9.698787427024747e-18 -9.221396166205227e-31 9.698787427024747e-18 0.04631762276018476 -1.0514946843403783e-31 -9.221396166205227e-31 -1.0514946843403783e-31 0.046324214776941715" energy=-162.797392729 Minim_Constant_Volume=T Minim_Hydrostatic_Strain=F pbc="T T T"
Si       0.00000000       0.00000000       0.00000000       14       0.00000000       0.00000000       0.00000000 
1
Lattice="2.7644875681859444 -6.225770027320757e-18 1.475759315248758e-29 1.3822437840929722 2.3941164624952918 1.1512855585689621e-29 1.445867418498526e-29 4.479883932258338e-30 2.5743901379770193" Properties=species:S:1:pos:R:3:Z:I:1:forces:R:3 stress="0.05454879797146311 3.4306668862697635e-18 -8.643693829165838e-31 3.4306668862697635e-18 0.054548797971463225 5.795397844186811e-31 -8.643693829165838e-31 5.795397844186811e-31 0.05463931444361328" energy=-162.778261203 Minim_Constant_Volume=T Minim_Hydrostatic_Strain=F pbc="T T T"
Si       0.00000000       0.00000000       0.00000000       14       0.00000000       0.00000000       0.00000000 
1
Lattice="2.7834355568334206 1.105235261587292e-16 1.817203843177646e-29 1.3917177784167103 2.410525902014625 1.1398995469080976e-29 1.7622653246971115e-29 2.5152553560849424e-30 2.5958906809069577" Properties=species:S:1:pos:R:3:Z:I:1:forces:R:3 stress="0.062422959807609556 1.5930771773901426e-17 -9.155244213986105e-31 1.5930771773901426e-17 0.06242295980760969 9.631652943060949e-31 -9.155244213986105e-31 9.631652943060949e-31 0.062423980362144985" energy=-162.756092567 Minim_Constant_Volume=T Minim_Hydrostatic_Strain=F pbc="T T T"
Si       0.00000000       0.00000000       0.00000000       14       0.00000000       0.00000000       0.00000000 
