2
Lattice="3.2916662077259646 0.0 0.0 0.0 3.2916662077259646 0.0 0.0 0.0 3.2916662077259646" Properties=species:S:1:pos:R:3:Z:I:1:forces:R:3 stress="-5.8864175605161865e-05 -1.0617582841912593e-32 -1.0617582841912593e-32 -1.0617582841912593e-32 -5.886417560516186e-05 0.0 -1.0617582841912593e-32 0.0 -5.886417560516186e-05" energy=-12.0619751945 Minim_Constant_Volume=T Minim_Hydrostatic_Strain=F pbc="T T T"
Ti       0.00000000       0.00000000       0.00000000       22       0.00000000       0.00000000      -0.00000000 
Ti       1.64583310       1.64583310       1.64583310       22       0.00000000      -0.00000000       0.00000000 
2
Lattice="3.2640038393282333 0.0 0.0 0.0 3.2640038393282333 0.0 0.0 0.0 3.2640038393282333" Properties=species:S:1:pos:R:3:Z:I:1:forces:R:3 stress="-0.023871459283808356 0.0 0.0 0.0 -0.023871459283808388 0.0 0.0 0.0 -0.023871459283808395" energy=-12.051354616 Minim_Constant_Volume=T Minim_Hydrostatic_Strain=F pbc="T T T"
Ti       0.00000000       0.00000000       0.00000000       22      -0.00000000       0.00000000      -0.00000000 
Ti       1.63200192       1.63200192       1.63200192       22      -0.00000000       0.00000000      -0.00000000 
2
Lattice="3.235864474957504 0.0 0.0 0.0 3.235864474957504 0.0 0.0 0.0 3.235864474957504" Properties=species:S:1:pos:R:3:Z:I:1:forces:R:3 stress="-0.048083745578810795 -2.8252120705633615e-32 -1.8834747137089078e-32 -2.8252120705633615e-32 -0.0480837455788108 0.0 -1.8834747137089078e-32 0.0 -0.0480837455788108" energy=-12.0192006643 Minim_Constant_Volume=T Minim_Hydrostatic_Strain=F pbc="T T T"
Ti       0.00000000       0.00000000       0.00000000       22       0.00000000       0.00000000       0.00000000 
Ti       1.61793224       1.61793224       1.61793224       22      -0.00000000       0.00000000      -0.00000000 
2
Lattice="3.2072270042821946 0.0 0.0 0.0 3.2072270042821946 0.0 0.0 0.0 3.2072270042821946" Properties=species:S:1:pos:R:3:Z:I:1:forces:R:3 stress="-0.07086231752601935 3.5948627546372344e-33 3.195433559677541e-33 3.5948627546372344e-33 -0.07086231752601936 0.0 3.195433559677541e-33 0.0 -0.07086231752601939" energy=-11.9660337054 Minim_Constant_Volume=T Minim_Hydrostatic_Strain=F pbc="T T T"
Ti       0.00000000       0.00000000       0.00000000       22      -0.00000000       0.00000000      -0.00000000 
Ti       1.60361350       1.60361350       1.60361350       22       0.00000000       0.00000000       0.00000000 
2
Lattice="3.1780687812244883 0.0 0.0 0.0 3.1780687812244883 0.0 0.0 0.0 3.1780687812244883" Properties=species:S:1:pos:R:3:Z:I:1:forces:R:3 stress="-0.09261441229849386 4.474714236683028e-33 -2.4407532200089247e-33 4.474714236683028e-33 -0.0926144122984939 0.0 -2.4407532200089247e-33 0.0 -0.0926144122984939" energy=-11.8934456397 Minim_Constant_Volume=T Minim_Hydrostatic_Strain=F pbc="T T T"
Ti       0.00000000       0.00000000       0.00000000       22       0.00000000      -0.00000000       0.00000000 
Ti       1.58903439       1.58903439       1.58903439       22      -0.00000000       0.00000000      -0.00000000 
2
Lattice="3.1483654660185674 0.0 0.0 0.0 3.1483654660185674 0.0 0.0 0.0 3.1483654660185674" Properties=species:S:1:pos:R:3:Z:I:1:forces:R:3 stress="-0.11382549447091868 0.0 0.0 0.0 -0.1138254944709187 0.0 0.0 0.0 -0.1138254944709187" energy=-11.8004113429 Minim_Constant_Volume=T Minim_Hydrostatic_Strain=F pbc="T T T"
Ti       0.00000000       0.00000000       0.00000000       22      -0.00000000       0.00000000       0.00000000 
Ti       1.57418273       1.57418273       1.57418273       22      -0.00000000       0.00000000      -0.00000000 
2
Lattice="3.318871294396024 0.0 0.0 0.0 3.318871294396024 0.0 0.0 0.0 3.318871294396024" Properties=species:S:1:pos:R:3:Z:I:1:forces:R:3 stress="0.0223907079333255 5.222114848732518e-33 5.222114848732518e-33 5.222114848732518e-33 0.022390707933325503 0.0 5.222114848732518e-33 0.0 0.022390707933325503" energy=-12.0517208433 Minim_Constant_Volume=T Minim_Hydrostatic_Strain=F pbc="T T T"
Ti       0.00000000       0.00000000       0.00000000       22       0.00000000      -0.00000000      -0.00000000 
Ti       1.65943565       1.65943565       1.65943565       22      -0.00000000       0.00000000       0.00000000 
2
Lattice="3.345637541383235 0.0 0.0 0.0 3.345637541383235 0.0 0.0 0.0 3.345637541383235" Properties=species:S:1:pos:R:3:Z:I:1:forces:R:3 stress="0.038539289629748924 -1.46825476444896e-32 -2.3492076231183363e-32 -1.46825476444896e-32 0.038539289629748924 0.0 -2.3492076231183363e-32 0.0 0.038539289629748924" energy=-12.0239639625 Minim_Constant_Volume=T Minim_Hydrostatic_Strain=F pbc="T T T"
Ti       0.00000000       0.00000000       0.00000000       22      -0.00000000       0.00000000       0.00000000 
Ti       1.67281877       1.67281877       1.67281877       22       0.00000000       0.00000000       0.00000000 
2
Lattice="3.37198222875588 0.0 0.0 0.0 3.37198222875588 0.0 0.0 0.0 3.37198222875588" Properties=species:S:1:pos:R:3:Z:I:1:forces:R:3 stress="0.04680761095306941 3.613504922529282e-33 2.890803938023425e-33 3.613504922529282e-33 0.04680761095306941 0.0 2.890803938023425e-33 0.0 0.04680761095306941" energy=-11.9853846821 Minim_Constant_Volume=T Minim_Hydrostatic_Strain=F pbc="T T T"
Ti       0.00000000       0.00000000       0.00000000       22      -0.00000000      -0.00000000       0.00000000 
Ti       1.68599111       1.68599111       1.68599111       22      -0.00000000       0.00000000       0.00000000 
2
Lattice="3.3979215729551813 0.0 0.0 0.0 3.3979215729551813 0.0 0.0 0.0 3.3979215729551813" Properties=species:S:1:pos:R:3:Z:I:1:forces:R:3 stress="0.05018851834519729 -7.117090676569526e-34 -2.8468362706278105e-33 -7.117090676569526e-34 0.050188518345197254 0.0 -2.8468362706278105e-33 0.0 0.050188518345197254" energy=-11.9419764018 Minim_Constant_Volume=T Minim_Hydrostatic_Strain=F pbc="T T T"
Ti       0.00000000       0.00000000       0.00000000       22      -0.00000000       0.00000000       0.00000000 
Ti       1.69896079       1.69896079       1.69896079       22       0.00000000      -0.00000000      -0.00000000 
2
Lattice="3.423470814788694 0.0 0.0 0.0 3.423470814788694 0.0 0.0 0.0 3.423470814788694" Properties=species:S:1:pos:R:3:Z:I:1:forces:R:3 stress="0.05462075753734562 -2.8045031503969323e-33 4.2067547255953984e-33 -2.8045031503969323e-33 0.05462075753734562 0.0 4.2067547255953984e-33 0.0 0.05462075753734562" energy=-11.8955747731 Minim_Constant_Volume=T Minim_Hydrostatic_Strain=F pbc="T T T"
Ti       0.00000000       0.00000000       0.00000000       22      -0.00000000       0.00000000      -0.00000000 
Ti       1.71173541       1.71173541       1.71173541       22       0.00000000       0.00000000       0.00000000 
2
Lattice="3.4486442983626264 0.0 0.0 0.0 3.4486442983626264 0.0 0.0 0.0 3.4486442983626264" Properties=species:S:1:pos:R:3:Z:I:1:forces:R:3 stress="0.06628410289532609 -5.527418943307504e-33 -2.763709471653752e-33 -5.527418943307504e-33 0.06628410289532603 0.0 -2.763709471653752e-33 0.0 0.06628410289532602" energy=-11.8423984144 Minim_Constant_Volume=T Minim_Hydrostatic_Strain=F pbc="T T T"
Ti       0.00000000       0.00000000       0.00000000       22      -0.00000000      -0.00000000      -0.00000000 
Ti       1.72432215       1.72432215       1.72432215       22      -0.00000000       0.00000000       0.00000000 
