53
Lattice="9.541610340324262 -5.2181696578767855e-14 -4.643177141184555e-14 -5.2181696578767855e-14 9.541610340324247 -3.286586337574424e-14 -4.643177141184555e-14 -3.286586337574424e-14 9.541610340324015" Properties=species:S:1:pos:R:3:Z:I:1 energy=-589.864059723 pbc="T T T"
W       1.59523553       1.58888575       1.59674528       74 
W       0.01523030      -0.00234153       3.17819541       74 
W       1.60606052       1.59794274       4.76611043       74 
W       0.00542560      -0.00463418       6.35641626       74 
W       1.59268801       1.57113559       7.93409277       74 
W      -0.00562288       3.17040847       0.00314247       74 
W       1.58118815       4.75668213       1.60492488       74 
W      -0.00225776       3.18121206       3.16628930       74 
W       1.58482456       4.77191440       4.75929523       74 
W       0.00375698       3.17453039       6.35815662       74 
W       1.58425132       4.78932795       7.95120698       74 
W      -0.01057711       6.36929901      -0.01220844       74 
W       1.59235703       7.93174525       1.57698653       74 
W       0.00196861       6.36845823       3.18225046       74 
W       1.58911191       7.94833091       4.75601995       74 
W      -0.00719844       6.35646717       6.37164478       74 
W       1.59370457       7.93371155       7.95458279       74 
W       3.17668596      -0.00676922       0.00611676       74 
W       4.78111517       1.59958119       1.58187621       74 
W       3.17744466       0.00331263       3.19029223       74 
W       4.76601343       1.58841180       4.75974182       74 
W       3.16857471       0.00812526       6.37463596       74 
W       4.77008507       1.60030372       7.95495831       74 
W       3.17408558       3.18415074       0.01538037       74 
W       4.77044691       4.78645161       1.56407094       74 
W       3.18875581       3.18140725       3.17754671       74 
W       4.77172278       4.75092948       4.76860845       74 
W       3.18410791       3.19531572       6.35589086       74 
W       4.76272023       4.76578760       7.96049597       74 
W       3.18382429       6.35577596       0.00513267       74 
W       4.77177595       7.96102840       1.58324786       74 
W       3.17726016       6.35715248       3.16590163       74 
W       4.77376637       7.95395250       4.77085630       74 
W       3.17819091       6.34691985       6.35686711       74 
W       4.76737802       7.94331918       7.94972909       74 
W       6.36511407       0.01886186       0.00174578       74 
W       7.95391745       1.58952393       1.57108068       74 
W       6.36080842       0.00060230       3.20516920       74 
W       7.94941834       1.59328386       4.77045805       74 
W       6.34938678       0.01142823       6.36859289       74 
W       7.95925227       1.58117452       7.96536989       74 
W       6.34705505       3.18640535       0.02190456       74 
W       7.94143659       4.76514219       1.59126490       74 
W       6.35603880       3.16503015       3.18122241       74 
W       7.94071891       4.77554109       4.76161093       74 
W       6.37657290       3.17270425       6.35785295       74 
W       7.95947712       4.75849653       7.95361655       74 
W       6.37414499       6.34499873       0.00184634       74 
W       7.95394078       7.95916018       1.57789888       74 
W       6.34786899       6.36629298       3.18350663       74 
W       7.95384688       7.95480643       4.76400492       74 
W       6.36339610       6.36400428       6.35393005       74 
W       7.96999970       7.95608028       7.93942892       74 
53
Lattice="9.541610340324262 -5.2181696578767855e-14 -4.643177141184555e-14 -5.2181696578767855e-14 9.541610340324247 -3.286586337574424e-14 -4.643177141184555e-14 -3.286586337574424e-14 9.541610340324015" Properties=species:S:1:pos:R:3:Z:I:1:forces:R:3 pbc="T T T"
W       1.58074301       1.57277587       1.57831095       74      -0.07575964      -0.02057377      -0.07649481 
W       0.00415316      -0.00013736       3.15588603       74      -0.02420323      -0.01626048      -0.03020379 
W       1.59310235       1.59313564       4.76868173       74      -0.02152387      -0.05685282      -0.00167893 
W       0.00102560      -0.00333045       6.37723271       74       0.01123776       0.02171386       0.06231743 
W       1.57914137       1.57204966       7.95732061       74      -0.06966121       0.00513933       0.13326987 
W      -0.00037278       3.15368995      -0.00338614       74      -0.01332521      -0.00462751       0.03346371 
W       1.58181850       4.76585900       1.59118589       74       0.08151661       0.05986476      -0.04534512 
W      -0.00350101       3.17217160       3.17092770       74       0.04408830       0.04520650       0.05539699 
W       1.58384152       4.77136635       4.76746881       74       0.05954576      -0.00896861       0.01011013 
W       0.00364787       3.17112564       6.36412104       74      -0.03936276       0.06191700      -0.02320058 
W       1.58620727       4.77163144       7.95280344       74       0.02977686      -0.03514081      -0.03059782 
W      -0.00459194       6.38380756      -0.00169851       74       0.05573359      -0.01350127      -0.01251002 
W       1.57810804       7.95620990       1.57066376       74      -0.05219816       0.13540944       0.02432257 
W      -0.00463679       6.37033906       3.17287291       74       0.03580300      -0.07627711       0.01120904 
W       1.59095782       7.95023271       4.76703555       74      -0.01862931       0.01121664       0.02235863 
W      -0.00422932       6.36462857       6.36581320       74       0.05612577      -0.01801914      -0.05328201 
W       1.58133163       7.95760334       7.96137525       74      -0.09862044       0.09002932       0.04419392 
W       3.15778402      -0.00321594       0.00198299       74      -0.01136892       0.02632949      -0.04542872 
W       4.77310327       1.58878605       1.58662246       74      -0.02517343       0.03068073       0.05254360 
W       3.17538617      -0.00172421       3.17669657       74       0.03661361       0.01149893      -0.00667109 
W       4.76845129       1.58573395       4.77040068       74       0.05112961       0.04178906       0.03242859 
W       3.17078755       0.00027866       6.37351619       74       0.08054738      -0.01873490      -0.13103425 
W       4.76930710       1.59320788       7.95157413       74       0.01399628      -0.04547790       0.03262994 
W       3.16523668       3.17280205       0.00112065       74       0.14675698       0.04365203      -0.02458783 
W       4.76974536       4.77959468       1.58367295       74      -0.00291471      -0.12877894       0.05236151 
W       3.17973302       3.17720142       3.17373395       74      -0.05924657      -0.01728834       0.00589360 
W       4.77227693       4.76559101       4.76895030       74      -0.01542266       0.06233442      -0.00080271 
W       3.17685666       3.18095426       6.36669316       74      -0.01051672      -0.07589288      -0.03852463 
W       4.77033839       4.76883755       7.95019699       74       0.00690625       0.02982595       0.03053693 
W       3.17489873       6.36608303      -0.00118455       74       0.02249680      -0.04340776      -0.02167008 
W       4.77448617       7.95987694       1.58613557       74      -0.03967576      -0.10801185       0.04032283 
W       3.17671412       6.36560194       3.17133457       74      -0.03496477      -0.00678539       0.02894405 
W       4.76906560       7.95140204       4.77310204       74       0.01587643       0.01149985      -0.02801743 
W       3.17653773       6.36304627       6.36025997       74      -0.02483447       0.01287666       0.05245921 
W       4.77301386       7.94897680       7.95067149       74      -0.02822001       0.03286590       0.02247387 
W       6.38335083       0.00149199      -0.00081791       74       0.02695743      -0.00935460      -0.00153130 
W       7.96872526       1.57186204       1.57103464       74      -0.00010198       0.00383351       0.02929371 
W       6.36901760      -0.00267324       3.18218160       74      -0.04888519       0.05617442      -0.08158808 
W       7.95650961       1.58826306       4.77040265       74      -0.05816059       0.00269725       0.00499820 
W       6.36200829       0.00237825       6.37343686       74       0.05169886      -0.03072257      -0.12440839 
W       7.96951924       1.57145899       7.96789565       74       0.00310984      -0.00327415      -0.01316581 
W       6.36297756       3.17689926       0.00323258       74       0.01627184      -0.00913398      -0.04478810 
W       7.94936497       4.77081619       1.59154111       74       0.00119724      -0.01004137      -0.05504932 
W       6.36570934       3.17082264       3.17603103       74      -0.00061568       0.05434891      -0.02172365 
W       7.94906163       4.77334443       4.76662256       74       0.03076186      -0.05350022       0.04550650 
W       6.37274069       3.17322883       6.36892396       74      -0.08817007       0.00710752      -0.05553457 
W       7.95258280       4.76280144       7.95023941       74      -0.00789002       0.09281032       0.01343687 
W       6.37373349       6.36802107      -0.00409142       74      -0.11903989      -0.01977327       0.02414551 
W       7.96407476       7.96942830       1.57250274       74       0.06003471      -0.00843108      -0.00656344 
W       6.36045235       6.36895229       3.17536023       74       0.06614673      -0.03297185      -0.02511451 
W       7.95287110       7.95455319       4.76757038       74      -0.03327575      -0.03025297       0.03202754 
W       6.36570030       6.36677230       6.36499211       74       0.00590156      -0.03649421      -0.01537366 
W       7.96762619       7.96715528       7.95655228       74       0.01152993      -0.01227209       0.11824591 
53
Lattice="9.541610340324262 -5.2181696578767855e-14 -4.643177141184555e-14 -5.2181696578767855e-14 9.541610340324247 -3.286586337574424e-14 -4.643177141184555e-14 -3.286586337574424e-14 9.541610340324015" Properties=species:S:1:pos:R:3:Z:I:1:forces:R:3 pbc="T T T"
W       1.57634661       1.57154529       1.57376367       74      -0.02108944       0.02017676      -0.01059692 
W       0.00192411      -0.00048693       3.15325384       74      -0.01028620      -0.00942705       0.03030826 
W       1.59118907       1.59054615       4.76859881       74      -0.00870617      -0.02602769       0.00823496 
W       0.00065029      -0.00203671       6.38183113       74       0.00511765       0.01181594       0.00697637 
W       1.57508905       1.57277170       7.96481745       74      -0.01113313      -0.00275021       0.01297031 
W      -0.00044068       3.15313125      -0.00220967       74      -0.00469351       0.02636699       0.01779875 
W       1.58629604       4.76894309       1.58858129       74       0.02858157       0.01069783      -0.00673932 
W      -0.00148071       3.17373882       3.17347163       74       0.01996503       0.01912405       0.00804889 
W       1.58683653       4.77077528       4.76855716       74       0.03032618      -0.00712499       0.00033700 
W       0.00177699       3.17386676       6.36374818       74      -0.02095288       0.01194355       0.00353961 
W       1.58826203       4.76945432       7.95174978       74       0.00791066       0.00333622      -0.02025163 
W      -0.00134128       6.38455004      -0.00122870       74       0.01161754      -0.01694113      -0.01728162 
W       1.57482357       7.96404549       1.57149786       74      -0.00307145       0.02652457       0.01233760 
W      -0.00266388       6.36691663       3.17304135       74       0.02395219      -0.02351099       0.01447164 
W       1.59030424       7.95088397       4.76872554       74      -0.01737760       0.00638895      -0.00306709 
W      -0.00133095       6.36439546       6.36387745       74       0.01310655      -0.00055412      -0.00165376 
W       1.57605414       7.96364601       7.96422436       74      -0.02499293       0.02233334       0.01604100 
W       3.15555898      -0.00135768      -0.00001101       74       0.02380446       0.00040984      -0.01685383 
W       4.77153814       1.58966785       1.58875835       74      -0.00580627      -0.00288622       0.00423004 
W       3.17637635      -0.00125246       3.17528976       74       0.00583752       0.00955186       0.00123565 
W       4.77065354       1.58749158       4.77122023       74       0.00906152       0.01909728      -0.00585960 
W       3.17419047      -0.00072130       6.36762765       74       0.02577575       0.00158946      -0.03744114 
W       4.77012424       1.59075307       7.95207614       74       0.00882070      -0.02620530       0.00495369 
W       3.17154645       3.17399142      -0.00062321       74       0.05847503       0.01903486      -0.00235631 
W       4.76981823       4.77299681       1.58703738       74       0.00551094      -0.03200884       0.00356725 
W       3.17691699       3.17618042       3.17366297       74      -0.02724365      -0.01951215       0.00662105 
W       4.77157539       4.76870028       4.76877486       74      -0.01085753       0.01781112       0.00996194 
W       3.17620688       3.17682778       6.36555857       74      -0.00971499      -0.02843988      -0.01114948 
W       4.77102867       4.76995093       7.95094018       74      -0.00694490       0.00525780       0.00677537 
W       3.17535687       6.36477628      -0.00205468       74       0.00845259      -0.00269484       0.00549902 
W       4.77248976       7.95460577       1.58802386       74      -0.02297640      -0.03953486       0.00658101 
W       3.17538054       6.36544748       3.17309835       74      -0.01253443       0.00445221       0.00232679 
W       4.76963063       7.95147166       4.77129161       74       0.01835368       0.00247220      -0.01542172 
W       3.17543637       6.36462994       6.36284856       74      -0.00485186       0.00161459       0.02835270 
W       4.77185337       7.95046318       7.95157438       74      -0.01762221       0.01676478      -0.00504480 
W       6.38536619      -0.00021304      -0.00080384       74      -0.00835295       0.00879188      -0.00251618 
W       7.96931805       1.57138335       1.57211492       74      -0.02234721       0.02550730       0.01073053 
W       6.36712676      -0.00055735       3.17691302       74      -0.01748142       0.00746010      -0.01855168 
W       7.95385383       1.58851891       4.77011122       74      -0.01748123      -0.00034387      -0.00192948 
W       6.36485634       0.00043689       6.36785793       74       0.01374269      -0.01611550      -0.03890517 
W       7.96984375       1.57109359       7.96749985       74      -0.02157001       0.01777588      -0.01384418 
W       6.36453809       3.17591051       0.00029845       74       0.01076290      -0.00807211      -0.01168181 
W       7.95043311       4.77033862       1.58919195       74       0.00746357      -0.00541490      -0.02198713 
W       6.36608013       3.17348138       3.17462751       74       0.00389423       0.01327786      -0.00352611 
W       7.95120288       4.77072237       4.76874364       74       0.00592746      -0.01278679       0.00843799 
W       6.36844469       3.17382478       6.36671849       74      -0.02233904       0.00114789      -0.01815202 
W       7.95177711       4.76721185       7.95069684       74       0.00942391       0.03246961       0.00445455 
W       6.36845101       6.36766114      -0.00282883       74      -0.03781085      -0.03155583       0.02086931 
W       7.96739762       7.96914374       1.57197746       74       0.00484893      -0.02548762       0.00509190 
W       6.36417623       6.36654629       3.17380660       74       0.02302086      -0.00089459      -0.00042998 
W       7.95161742       7.95270838       4.76889955       74      -0.00043075      -0.01474045       0.00460502 
W       6.36602320       6.36511919       6.36511145       74       0.00370821       0.00354769      -0.00841673 
W       7.96801147       7.96712895       7.96337421       74       0.00120665      -0.01371250       0.02829948 
53
Lattice="9.541610340324262 -5.2181696578767855e-14 -4.643177141184555e-14 -5.2181696578767855e-14 9.541610340324247 -3.286586337574424e-14 -4.643177141184555e-14 -3.286586337574424e-14 9.541610340324015" Properties=species:S:1:pos:R:3:Z:I:1:forces:R:3 pbc="T T T"
W       1.57467118       1.57264354       1.57268742       74      -0.00341341       0.00967972       0.00337269 
W       0.00069590      -0.00089062       3.15454021       74      -0.00515732       0.00083570       0.01341920 
W       1.59017543       1.58898878       4.76913274       74      -0.00482344      -0.00402073       0.00379172 
W       0.00047907      -0.00118023       6.38305576       74      -0.00267889       0.00185959       0.00074710 
W       1.57399278       1.57305551       7.96639337       74       0.00385967      -0.00036705      -0.00660590 
W      -0.00050259       3.15477692      -0.00135008       74       0.00526230       0.01261679       0.00095344 
W       1.58865327       4.77000660       1.58795091       74       0.00551999      -0.00240375       0.00034092 
W      -0.00024810       3.17487355       3.17434740       74       0.00285235      -0.00028075      -0.00256652 
W       1.58885745       4.77028277       4.76905973       74       0.00597066      -0.00349621       0.00096607 
W       0.00046234       3.17488190       6.36404400       74      -0.00496457      -0.00366927       0.00670521 
W       1.58920622       4.76935460       7.95074743       74       0.00174407       0.00526452      -0.00329073 
W      -0.00011271       6.38403569      -0.00165107       74      -0.00036212      -0.00408993      -0.00127884 
W       1.57425977       7.96650049       1.57238547       74       0.00099505      -0.00120517       0.00229081 
W      -0.00098539       6.36525070       3.17392481       74       0.00886428      -0.00127584       0.00233734 
W       1.58949738       7.95129065       4.76915470       74      -0.00115506      -0.00055450      -0.00117652 
W      -0.00020217       6.36456745       6.36378651       74       0.00012163       0.00392839       0.00689472 
W       1.57419423       7.96595276       7.96551430       74       0.00065612       0.00302601       0.00370346 
W       3.15621145      -0.00100677      -0.00117546       74       0.00995313       0.00074292       0.00084778 
W       4.77091870       1.58936280       1.58901937       74      -0.00049151      -0.00686895      -0.00674036 
W       3.17654791      -0.00080990       3.17490348       74      -0.00724510       0.00218205      -0.00302143 
W       4.77115750       1.58848245       4.77066500       74      -0.00166729       0.00405104      -0.01092195 
W       3.17578516      -0.00082119       6.36495540       74       0.00017171       0.00028746      -0.00147795 
W       4.77071058       1.58903117       7.95173409       74       0.00205621      -0.00414008      -0.00603086 
W       3.17518460       3.17490669      -0.00124571       74       0.00492764       0.00037456       0.00120712 
W       4.77028532       4.77041464       1.58794638       74       0.00405215      -0.00112054      -0.00041128 
W       3.17526981       3.17499228       3.17394750       74      -0.00052958      -0.00584732       0.00109985 
W       4.77097482       4.77000175       4.76924168       74      -0.00319491      -0.00010970       0.00330591 
W       3.17559656       3.17471551       6.36497852       74      -0.00354391      -0.00297971       0.00227717 
W       4.77093466       4.77023001       7.95106408       74      -0.00287450      -0.00316749      -0.00218703 
W       3.17578730       6.36469379      -0.00180742       74      -0.00271923       0.00510993       0.00552994 
W       4.77104158       7.95178355       1.58857760       74      -0.00338050      -0.00263503      -0.00460501 
W       3.17485307       6.36563566       3.17365010       74       0.00203670       0.00084979       0.00091739 
W       4.77056138       7.95141114       4.77011176       74       0.00373146       0.00017837      -0.00619751 
W       3.17516240       6.36525753       6.36459499       74       0.00032797       0.00160481       0.00455162 
W       4.77087708       7.95137318       7.95120275       74      -0.00139494      -0.00001228      -0.00474796 
W       6.38503767      -0.00043790      -0.00108024       74      -0.00286773      -0.00150009       0.00056199 
W       7.96811892       1.57272189       1.57284405       74      -0.00952694       0.00916074       0.00208533 
W       6.36597274      -0.00028313       3.17493967       74       0.00145791      -0.00493137      -0.00202415 
W       7.95255794       1.58861488       4.76985335       74      -0.00168372      -0.00050677      -0.00423034 
W       6.36582684      -0.00078348       6.36510437       74       0.00302437      -0.00202394      -0.00155859 
W       7.96851063       1.57219589       7.96657397       74      -0.01177636       0.01087012      -0.00420052 
W       6.36544662       3.17531396      -0.00104889       74       0.00471977      -0.00458087      -0.00025935 
W       7.95134390       4.77003272       1.58802302       74       0.00602294       0.00006886      -0.00027810 
W       6.36639110       3.17452183       3.17413051       74      -0.00083674       0.00022760       0.00100962 
W       7.95204179       4.76983987       4.76948636       74      -0.00055823       0.00123248      -0.00274880 
W       6.36668208       3.17410021       6.36554847       74      -0.00089577       0.00239440      -0.00211320 
W       7.95199609       4.76944040       7.95087266       74       0.00218126       0.00339138      -0.00203371 
W       6.36599649       6.36599590      -0.00163615       74      -0.00151548      -0.01079969       0.00424463 
W       7.96794648       7.96748798       1.57238677       74      -0.00635231      -0.00923216       0.00292708 
W       6.36599197       6.36582517       3.17357196       74       0.00155999       0.00024862       0.00429227 
W       7.95155876       7.95153177       4.76936183       74       0.00697565      -0.00300868      -0.00180055 
W       6.36626010       6.36514672       6.36490908       74       0.00071445       0.00512341       0.00128447 
W       7.96786092       7.96645914       7.96577698       74      -0.00414986      -0.00048138       0.00084230 
53
Lattice="9.541610340324262 -5.2181696578767855e-14 -4.643177141184555e-14 -5.2181696578767855e-14 9.541610340324247 -3.286586337574424e-14 -4.643177141184555e-14 -3.286586337574424e-14 9.541610340324015" Properties=species:S:1:pos:R:3:Z:I:1:forces:R:3 pbc="T T T"
W       1.57436407       1.57318917       1.57275608       74      -0.00148043       0.00201047       0.00167620 
W       0.00027534      -0.00086936       3.15524513       74      -0.00210699       0.00088247       0.00236357 
W       1.58978484       1.58870349       4.76935595       74      -0.00200969      -0.00004367       0.00152884 
W       0.00025294      -0.00097746       6.38324761       74      -0.00212629       0.00002602       0.00162294 
W       1.57405272       1.57316854       7.96626591       74       0.00229156       0.00015686      -0.00267714 
W      -0.00023912       3.15556766      -0.00125374       74       0.00295483       0.00348150      -0.00145584 
W       1.58920511       4.77002645       1.58796580       74       0.00180614      -0.00121899       0.00107353 
W      -0.00002711       3.17497099       3.17437932       74      -0.00006888      -0.00132144      -0.00078205 
W       1.58932245       4.77008057       4.76924772       74      -0.00047153      -0.00153604       0.00118870 
W       0.00011812       3.17489197       6.36436152       74      -0.00086584      -0.00206319       0.00228418 
W       1.58941884       4.76961896       7.95061846       74       0.00056474       0.00285173       0.00029354 
W       0.00003741       6.38385979      -0.00161041       74      -0.00121818       0.00031818       0.00145085 
W       1.57424963       7.96667935       1.57264597       74      -0.00084852      -0.00129136       0.00059055 
W      -0.00038593       6.36501554       3.17417945       74       0.00339658       0.00084879       0.00028798 
W       1.58941134       7.95130443       4.76925064       74       0.00148232      -0.00086572       0.00087352 
W      -0.00005426       6.36480396       6.36414509       74      -0.00030311       0.00178574       0.00322188 
W       1.57408022       7.96636357       7.96585313       74       0.00168711       0.00121814       0.00128479 
W       3.15665853      -0.00092052      -0.00127733       74       0.00222709       0.00109029       0.00092658 
W       4.77082197       1.58898316       1.58866394       74       0.00010421      -0.00296206      -0.00424475 
W       3.17619264      -0.00072153       3.17466405       74      -0.00475486      -0.00031413      -0.00194383 
W       4.77107102       1.58868160       4.77003088       74      -0.00185330      -0.00107077      -0.00480521 
W       3.17589345      -0.00082682       6.36458857       74      -0.00141324      -0.00028139       0.00115156 
W       4.77083134       1.58871283       7.95130509       74       0.00019277      -0.00037572      -0.00461448 
W       3.17572521       3.17498480      -0.00130773       74      -0.00129944      -0.00143564       0.00049923 
W       4.77056260       4.77005529       1.58805506       74       0.00175634       0.00108003      -0.00052070 
W       3.17514505       3.17461826       3.17398728       74       0.00207803      -0.00107996       0.00003537 
W       4.77082054       4.77008053       4.76939861       74      -0.00073163      -0.00093954       0.00126908 
W       3.17538735       3.17440519       6.36499476       74      -0.00090449       0.00048923       0.00141046 
W       4.77084807       4.77009953       7.95095519       74      -0.00089597      -0.00176033      -0.00068426 
W       3.17575279       6.36489547      -0.00152810       74      -0.00154246       0.00226040       0.00191342 
W       4.77079665       7.95135939       1.58840614       74       0.00020930       0.00102734      -0.00274909 
W       3.17498334       6.36562912       3.17379258       74       0.00269279      -0.00054313       0.00092133 
W       4.77077812       7.95137604       4.76969366       74       0.00030036       0.00104154      -0.00205371 
W       3.17518507       6.36541670       6.36494376       74       0.00068351       0.00090939      -0.00024278 
W       4.77076065       7.95140698       7.95094410       74       0.00073557      -0.00178054      -0.00178860 
W       6.38482799      -0.00061178      -0.00115365       74       0.00028321      -0.00239108      -0.00013539 
W       7.96756420       1.57323823       1.57299882       74      -0.00181057       0.00197499      -0.00068625 
W       6.36589249      -0.00054293       3.17457196       74       0.00133772      -0.00306706      -0.00001455 
W       7.95229379       1.58862323       4.76962538       74      -0.00042965       0.00019627      -0.00143951 
W       6.36599054      -0.00095731       6.36469205       74      -0.00014500       0.00097779       0.00091448 
W       7.96781959       1.57284307       7.96627060       74      -0.00377543       0.00438777      -0.00071330 
W       6.36572576       3.17506937      -0.00126010       74       0.00167891      -0.00186756       0.00079144 
W       7.95176642       4.77000051       1.58798142       74       0.00297775       0.00033680       0.00178902 
W       6.36636871       3.17459732       3.17405864       74      -0.00077010      -0.00082567       0.00029842 
W       7.95214234       4.76983320       4.76948043       74       0.00060960       0.00162167      -0.00135352 
W       6.36643476       3.17426529       6.36527028       74       0.00025363       0.00154356      -0.00100752 
W       7.95209293       4.76981899       7.95081841       74      -0.00001547       0.00003008      -0.00139712 
W       6.36574781       6.36536068      -0.00136987       74       0.00163573      -0.00324312       0.00014931 
W       7.96769801       7.96687922       1.57262003       74      -0.00299607      -0.00234235       0.00126731 
W       6.36626661       6.36566842       3.17373839       74      -0.00072477      -0.00067754       0.00240805 
W       7.95185710       7.95129251       4.76938232       74       0.00365405      -0.00063382      -0.00042249 
W       6.36632141       6.36534733       6.36495467       74      -0.00013998       0.00179724       0.00098365 
W       7.96760353       7.96641022       7.96606159       74      -0.00189192       0.00158751      -0.00073769 
53
Lattice="9.541610340324262 -5.2181696578767855e-14 -4.643177141184555e-14 -5.2181696578767855e-14 9.541610340324247 -3.286586337574424e-14 -4.643177141184555e-14 -3.286586337574424e-14 9.541610340324015" Properties=species:S:1:pos:R:3:Z:I:1:forces:R:3 pbc="T T T"
W       1.57421161       1.57337475       1.57283730       74      -0.00046891      -0.00064816       0.00013009 
W       0.00006643      -0.00083388       3.15549178       74      -0.00047996       0.00021465      -0.00106640 
W       1.58957324       1.58864600       4.76947798       74      -0.00033559       0.00041626       0.00008833 
W       0.00007780      -0.00090119       6.38339624       74      -0.00070736      -0.00002468       0.00102702 
W       1.57415290       1.57323449       7.96612928       74       0.00034082       0.00044383       0.00010766 
W      -0.00004095       3.15591238      -0.00130183       74       0.00053867      -0.00016422      -0.00074959 
W       1.58944543       4.76998723       1.58806579       74       0.00044627      -0.00014195       0.00073781 