53
Lattice="9.541610340324262 -5.2181696578767855e-14 -4.643177141184555e-14 -5.2181696578767855e-14 9.541610340324247 -3.286586337574424e-14 -4.643177141184555e-14 -3.286586337574424e-14 9.541610340324015" Properties=species:S:1:pos:R:3:Z:I:1:forces:R:3 pbc="T T T"
W       1.57415824       1.57333436       1.57283898       74       0.00006655      -0.00011042      -0.00009281 
W       0.00000318      -0.00082998       3.15545725       74       0.00001655      -0.00006445      -0.00001230 
W       1.58951073       1.58866273       4.76948603       74       0.00000845      -0.00001717      -0.00010375 
W       0.00000550      -0.00085730       6.38349103       74       0.00005044       0.00012218      -0.00001328 
W       1.57416924       1.57329924       7.96612243       74      -0.00006439       0.00016638       0.00005657 
W       0.00001176       3.15594923      -0.00133703       74      -0.00012341      -0.00001386       0.00010765 
W       1.58951194       4.76996910       1.58816078       74      -0.00004943       0.00002474       0.00008202 
W       0.00000302       3.17490067       3.17440478       74       0.00001185       0.00004623       0.00005971 
W       1.58934831       4.76995754       4.76946795       74       0.00006996       0.00009576       0.00001974 
W       0.00000266       3.17487819       6.36454630       74       0.00004389       0.00018089      -0.00007510 
W       1.58951125       4.76995804       7.95076099       74      -0.00004500       0.00001432       0.00012248 
W       0.00000044       6.38397291      -0.00135161       74       0.00003705       0.00008411       0.00009700 
W       1.57415024       7.96662831       1.57281176       74       0.00011690      -0.00008902       0.00008536 
W       0.00001225       6.36503381       3.17438476       74      -0.00008459       0.00000903       0.00015935 
W       1.58951547       7.95126353       4.76946097       74      -0.00007492       0.00006197       0.00007879 
W       0.00000329       6.36502268       6.36452830       74       0.00004229       0.00000664       0.00001827 
W       1.57416922       7.96660814       7.96611019       74      -0.00006824      -0.00001017       0.00004440 
W       3.15680201      -0.00083175      -0.00132173       74      -0.00008688      -0.00008102      -0.00011592 
W       4.77080761       1.58866829       1.58818226       74       0.00002112       0.00005705       0.00002207 
W       3.17573815      -0.00082564       3.17441123       74       0.00009721      -0.00009206      -0.00003129 
W       4.77082057       1.58851329       4.76947991       74      -0.00009302      -0.00000340       0.00004863 
W       3.17575237      -0.00084240       6.36454484       74      -0.00003852       0.00001274      -0.00004795 
W       4.77081884       1.58865630       7.95077975       74      -0.00004557       0.00005168       0.00007232 
W       3.17574243       3.17489474      -0.00132677       74       0.00003802       0.00006633      -0.00002400 
W       4.77080409       4.76997771       1.58801850       74       0.00002450      -0.00008645       0.00003670 
W       3.17528317       3.17444327       3.17395207       74      -0.00010210      -0.00003956      -0.00005894 
W       4.77080016       4.76997730       4.76948606       74       0.00009341      -0.00007127      -0.00010718 
W       3.17527942       3.17442729       6.36501643       74       0.00000373       0.00002953      -0.00010521 
W       4.77080445       4.76995929       7.95093242       74       0.00004339       0.00005819       0.00002502 
W       3.17573088       6.36504308      -0.00133451       74       0.00013617      -0.00011751      -0.00003969 
W       4.77080803       7.95127822       1.58816736       74      -0.00000392      -0.00008843       0.00009669 
W       3.17527625       6.36550921       3.17393562       74      -0.00002174      -0.00004163       0.00000756 
W       4.77081534       7.95143518       4.76946831       74      -0.00001473      -0.00012111       0.00007926 
W       3.17527457       6.36550180       6.36499889       74       0.00003539      -0.00007819       0.00003528 
W       4.77081191       7.95125997       7.95077261       74      -0.00001512       0.00006947       0.00005424 
W       6.38482969      -0.00084710      -0.00131508       74      -0.00003627       0.00011252      -0.00013285 
W       7.96743390       1.57334999       1.57285211       74       0.00023104      -0.00027181      -0.00017475 
W       6.36588829      -0.00084026       3.17441667       74      -0.00014184       0.00010934      -0.00007373 
W       7.95211629       1.58866268       4.76948388       74      -0.00005101       0.00001379      -0.00000001 
W       6.36589279      -0.00084442       6.36455332       74      -0.00013681       0.00001930      -0.00012429 
W       7.96745499       1.57331312       7.96613975       74       0.00008996      -0.00004151      -0.00011534 
W       6.36587827       3.17489632      -0.00131694       74      -0.00005772       0.00005395      -0.00009876 
W       7.95211221       4.76997835       1.58817045       74      -0.00004737      -0.00010852      -0.00001017 
W       6.36633039       3.17445257       3.17396054       74       0.00011780      -0.00013269      -0.00012802 
W       7.95226651       4.76996679       4.76946650       74      -0.00002516      -0.00003056       0.00009284 
W       6.36634559       3.17443341       6.36501652       74      -0.00004556      -0.00002831      -0.00005779 
W       7.95211056       4.76995494       7.95076665       74      -0.00000866       0.00005892       0.00009331 
W       6.36587182       6.36502180      -0.00133299       74       0.00000624       0.00012591       0.00000004 
W       7.96746024       7.96661535       1.57281411       74      -0.00003247       0.00001087       0.00010302 
W       6.36633417       6.36550602       3.17394394       74       0.00011833      -0.00003159      -0.00008045 
W       7.95212665       7.95125601       4.76946017       74      -0.00016826       0.00011747       0.00012887 
W       6.36633898       6.36549638       6.36500532       74       0.00003426      -0.00002223      -0.00004409 
W       7.96744666       7.96660085       7.96611345       74       0.00012822       0.00001361       0.00004052 
