8
Lattice="5.442001983561403 -4.247620779112873e-25 -1.0619051947782182e-25 -4.247620779112873e-25 5.442001983561403 -4.247620779112873e-25 -1.0619051947782182e-25 -4.247620779112873e-25 5.442001983561403" Properties=species:S:1:pos:R:3:forces:R:3 stress="9.872352569646245e-06 1.4896412273091944e-25 1.4896412273091944e-25 1.4896412273091944e-25 9.872352569646241e-06 -7.452912491860481e-22 1.4896412273091944e-25 -7.452912491860481e-22 9.872352569646241e-06" energy=-1305.20032606 Minim_Constant_Volume=T Minim_Hydrostatic_Strain=F pbc="T T T"
Si      -0.00000000       0.00000000      -0.00000000      -0.00000000       0.00000000       0.00000000 
Si       1.36050050       1.36050050       1.36050050      -0.00000000      -0.00000000      -0.00000000 
Si       2.72100099       2.72100099      -0.00000000      -0.00000000      -0.00000000      -0.00000000 
Si       4.08150149       4.08150149       1.36050050       0.00000000      -0.00000000       0.00000000 
Si       2.72100099       0.00000000       2.72100099       0.00000000       0.00000000       0.00000000 
Si       4.08150149       1.36050050       4.08150149      -0.00000000      -0.00000000      -0.00000000 
Si      -0.00000000       2.72100099       2.72100099      -0.00000000      -0.00000000      -0.00000000 
Si       1.36050050       4.08150149       4.08150149       0.00000000      -0.00000000       0.00000000 
8
Lattice="5.39626871226642 -4.211924799207652e-25 -1.052981199801913e-25 -4.211924799207652e-25 5.39626871226642 -4.211924799207652e-25 -1.052981199801913e-25 -4.211924799207652e-25 5.39626871226642" Properties=species:S:1:pos:R:3:forces:R:3 stress="-0.01751081912610037 7.574987907412711e-26 -1.514997581482542e-25 7.574987907412711e-26 -0.01751081912610036 -3.787493953706355e-26 -1.514997581482542e-25 -3.787493953706355e-26 -0.017510819126100363" energy=-1305.16640919 Minim_Constant_Volume=T Minim_Hydrostatic_Strain=F pbc="T T T"
Si      -0.00000000       0.00000000      -0.00000000      -0.00000000      -0.00000000      -0.00000000 
Si       1.34906718       1.34906718       1.34906718       0.00000000       0.00000000       0.00000000 
Si       2.69813436       2.69813436      -0.00000000      -0.00000000      -0.00000000      -0.00000000 
Si       4.04720153       4.04720153       1.34906718      -0.00000000       0.00000000      -0.00000000 
Si       2.69813436       0.00000000       2.69813436      -0.00000000       0.00000000      -0.00000000 
Si       4.04720153       1.34906718       4.04720153       0.00000000       0.00000000      -0.00000000 
Si      -0.00000000       2.69813436       2.69813436      -0.00000000      -0.00000000      -0.00000000 
Si       1.34906718       4.04720153       4.04720153      -0.00000000       0.00000000      -0.00000000 
8
Lattice="5.3497468394342835 -4.175613295771612e-25 -1.043903323942903e-25 -4.175613295771612e-25 5.3497468394342835 -4.175613295771612e-25 -1.043903323942903e-25 -4.175613295771612e-25 5.3497468394342835" Properties=species:S:1:pos:R:3:forces:R:3 stress="-0.035214174620037876 2.504874539613874e-25 -9.634132844668737e-27 2.504874539613874e-25 -0.03521417462003784 5.7777898331617076e-34 -9.634132844668737e-27 5.7777898331617076e-34 -0.035214174620037855" energy=-1305.05714857 Minim_Constant_Volume=T Minim_Hydrostatic_Strain=F pbc="T T T"
Si      -0.00000000       0.00000000      -0.00000000       0.00000000      -0.00000000      -0.00000000 
Si       1.33743671       1.33743671       1.33743671       0.00000000      -0.00000000      -0.00000000 
Si       2.67487342       2.67487342      -0.00000000       0.00000000      -0.00000000       0.00000000 
Si       4.01231013       4.01231013       1.33743671      -0.00000000       0.00000000      -0.00000000 
Si       2.67487342       0.00000000       2.67487342      -0.00000000       0.00000000      -0.00000000 
Si       4.01231013       1.33743671       4.01231013       0.00000000      -0.00000000      -0.00000000 
Si      -0.00000000       2.67487342       2.67487342      -0.00000000       0.00000000       0.00000000 
Si       1.33743671       4.01231013       4.01231013      -0.00000000       0.00000000      -0.00000000 
8
Lattice="5.302401464057697 -4.138659027682044e-25 -1.034664756920511e-25 -4.138659027682044e-25 5.302401464057697 -4.138659027682044e-25 -1.034664756920511e-25 -4.138659027682044e-25 5.302401464057697" Properties=species:S:1:pos:R:3:forces:R:3 stress="-0.05315781957603823 -6.276446811571877e-25 -2.313824024293138e-41 -6.276446811571877e-25 -0.05315781957603825 1.9558250876218477e-18 -2.313824024293138e-41 1.9558250876218477e-18 -0.053157819576038226" energy=-1304.88051554 Minim_Constant_Volume=T Minim_Hydrostatic_Strain=F pbc="T T T"
Si      -0.00000000       0.00000000      -0.00000000      -0.00000000      -0.00000000       0.00000000 
Si       1.32560037       1.32560037       1.32560037      -0.00000000      -0.00000000      -0.00000000 
Si       2.65120073       2.65120073      -0.00000000      -0.00000000       0.00000000      -0.00000000 
Si       3.97680110       3.97680110       1.32560037      -0.00000000      -0.00000000       0.00000000 
Si       2.65120073       0.00000000       2.65120073      -0.00000000      -0.00000000       0.00000000 
Si       3.97680110       1.32560037       3.97680110      -0.00000000       0.00000000       0.00000000 
Si      -0.00000000       2.65120073       2.65120073      -0.00000000       0.00000000      -0.00000000 
Si       1.32560037       3.97680110       3.97680110      -0.00000000      -0.00000000       0.00000000 
8
Lattice="5.254195146131315 -4.101032772063773e-25 -1.0252581930159432e-25 -4.101032772063773e-25 5.254195146131315 -4.101032772063773e-25 -1.0252581930159432e-25 -4.101032772063773e-25 5.254195146131315" Properties=species:S:1:pos:R:3:forces:R:3 stress="-0.072252252175466 -7.990182176877379e-26 1.2784291483003816e-24 -7.990182176877379e-26 -0.07225225217546609 -5.2683889966730866e-18 1.2784291483003816e-24 -5.2683889966730866e-18 -0.072252252175466" energy=-1304.62724955 Minim_Constant_Volume=T Minim_Hydrostatic_Strain=F pbc="T T T"
Si      -0.00000000       0.00000000      -0.00000000      -0.00000000       0.00000000       0.00000000 
Si       1.31354879       1.31354879       1.31354879       0.00000000      -0.00000000      -0.00000000 
Si       2.62709757       2.62709757      -0.00000000      -0.00000000       0.00000000      -0.00000000 
Si       3.94064636       3.94064636       1.31354879       0.00000000       0.00000000      -0.00000000 
Si       2.62709757       0.00000000       2.62709757       0.00000000       0.00000000      -0.00000000 
Si       3.94064636       1.31354879       3.94064636       0.00000000      -0.00000000      -0.00000000 
Si      -0.00000000       2.62709757       2.62709757      -0.00000000       0.00000000      -0.00000000 
Si       1.31354879       3.94064636       3.94064636      -0.00000000       0.00000000       0.00000000 
8
Lattice="5.2050876455319015 -4.0627031204784824e-25 -1.0156757801196206e-25 -4.0627031204784824e-25 5.2050876455319015 -4.0627031204784824e-25 -1.0156757801196206e-25 -4.0627031204784824e-25 5.2050876455319015" Properties=species:S:1:pos:R:3:forces:R:3 stress="-0.09106442768511289 -1.4349296274686127e-42 -1.6283320884931944e-25 -1.4349296274686127e-42 -0.09106442768511289 -1.4039761109566547e-50 -1.6283320884931944e-25 -1.4039761109566547e-50 -0.09106442768511286" energy=-1304.29923374 Minim_Constant_Volume=T Minim_Hydrostatic_Strain=F pbc="T T T"
Si      -0.00000000       0.00000000      -0.00000000      -0.00000000      -0.00000000       0.00000000 
Si       1.30127191       1.30127191       1.30127191       0.00000000       0.00000000      -0.00000000 
Si       2.60254382       2.60254382      -0.00000000      -0.00000000       0.00000000      -0.00000000 
Si       3.90381573       3.90381573       1.30127191       0.00000000       0.00000000       0.00000000 
Si       2.60254382       0.00000000       2.60254382      -0.00000000      -0.00000000       0.00000000 
Si       3.90381573       1.30127191       3.90381573       0.00000000      -0.00000000      -0.00000000 
Si      -0.00000000       2.60254382       2.60254382      -0.00000000       0.00000000      -0.00000000 
Si       1.30127191       3.90381573       3.90381573      -0.00000000       0.00000000      -0.00000000 
8
Lattice="5.486979246223678 -4.282726675077076e-25 -1.070681668769269e-25 -4.282726675077076e-25 5.486979246223678 -4.282726675077076e-25 -1.070681668769269e-25 -4.282726675077076e-25 5.486979246223678" Properties=species:S:1:pos:R:3:forces:R:3 stress="0.013941010343289763 7.326599366578804e-26 -1.4653198733157606e-25 7.326599366578804e-26 0.013941010343289774 5.307840624230385e-19 -1.4653198733157606e-25 5.307840624230385e-19 0.013941010343289763" energy=-1305.17125607 Minim_Constant_Volume=T Minim_Hydrostatic_Strain=F pbc="T T T"
Si      -0.00000000       0.00000000      -0.00000000      -0.00000000       0.00000000       0.00000000 
Si       1.37174481       1.37174481       1.37174481      -0.00000000      -0.00000000       0.00000000 
Si       2.74348962       2.74348962      -0.00000000       0.00000000       0.00000000       0.00000000 
Si       4.11523443       4.11523443       1.37174481       0.00000000       0.00000000      -0.00000000 
Si       2.74348962       0.00000000       2.74348962      -0.00000000       0.00000000       0.00000000 
Si       4.11523443       1.37174481       4.11523443      -0.00000000      -0.00000000       0.00000000 
Si      -0.00000000       2.74348962       2.74348962      -0.00000000       0.00000000       0.00000000 
Si       1.37174481       4.11523443       4.11523443       0.00000000       0.00000000      -0.00000000 
8
Lattice="5.531230989871017 -4.317266285021393e-25 -1.0793165712553483e-25 -4.317266285021393e-25 5.531230989871017 -4.317266285021393e-25 -1.0793165712553483e-25 -4.317266285021393e-25 5.531230989871017" Properties=species:S:1:pos:R:3:forces:R:3 stress="0.024906540634101085 -3.604918848567314e-26 -7.209837697134627e-26 -3.604918848567314e-26 0.024906540634101092 -2.8677857881289142e-18 -7.209837697134627e-26 -2.8677857881289142e-18 0.024906540634101085" energy=-1305.09204691 Minim_Constant_Volume=T Minim_Hydrostatic_Strain=F pbc="T T T"
Si      -0.00000000       0.00000000      -0.00000000       0.00000000      -0.00000000       0.00000000 
Si       1.38280775       1.38280775       1.38280775       0.00000000      -0.00000000       0.00000000 
Si       2.76561549       2.76561549      -0.00000000       0.00000000       0.00000000       0.00000000 
Si       4.14842324       4.14842324       1.38280775       0.00000000      -0.00000000       0.00000000 
Si       2.76561549       0.00000000       2.76561549      -0.00000000      -0.00000000       0.00000000 
Si       4.14842324       1.38280775       4.14842324       0.00000000      -0.00000000       0.00000000 
Si      -0.00000000       2.76561549       2.76561549       0.00000000       0.00000000       0.00000000 
Si       1.38280775       4.14842324       4.14842324       0.00000000      -0.00000000      -0.00000000 
8
Lattice="5.574785783064121 -4.351261907433116e-25 -1.087815476858279e-25 -4.351261907433116e-25 5.574785783064121 -4.351261907433116e-25 -1.087815476858279e-25 -4.351261907433116e-25 5.574785783064121" Properties=species:S:1:pos:R:3:forces:R:3 stress="0.033884490977783684 -1.774404867605579e-25 2.839047788168926e-25 -1.774404867605579e-25 0.033884490977783746 3.932245749210382e-18 2.839047788168926e-25 3.932245749210382e-18 0.033884490977783684" energy=-1304.97299352 Minim_Constant_Volume=T Minim_Hydrostatic_Strain=F pbc="T T T"
Si      -0.00000000       0.00000000      -0.00000000       0.00000000       0.00000000       0.00000000 
Si       1.39369645       1.39369645       1.39369645       0.00000000      -0.00000000      -0.00000000 
Si       2.78739289       2.78739289      -0.00000000       0.00000000      -0.00000000       0.00000000 
Si       4.18108934       4.18108934       1.39369645      -0.00000000      -0.00000000       0.00000000 
Si       2.78739289       0.00000000       2.78739289       0.00000000       0.00000000       0.00000000 
Si       4.18108934       1.39369645       4.18108934       0.00000000      -0.00000000      -0.00000000 
Si      -0.00000000       2.78739289       2.78739289       0.00000000       0.00000000       0.00000000 
Si       1.39369645       4.18108934       4.18108934      -0.00000000       0.00000000      -0.00000000 
8
Lattice="5.617670435904545 -4.384734468277501e-25 -1.0961836170693753e-25 -4.384734468277501e-25 5.617670435904545 -4.384734468277501e-25 -1.0961836170693753e-25 -4.384734468277501e-25 5.617670435904545" Properties=species:S:1:pos:R:3:forces:R:3 stress="0.04169175435740003 -1.3669033035364782e-42 1.7474170660401138e-26 -1.3669033035364782e-42 0.04169175435740006 1.6251620596108352e-18 1.7474170660401138e-26 1.6251620596108352e-18 0.04169175435740003" energy=-1304.82034348 Minim_Constant_Volume=T Minim_Hydrostatic_Strain=F pbc="T T T"
Si      -0.00000000       0.00000000      -0.00000000       0.00000000      -0.00000000      -0.00000000 
Si       1.40441761       1.40441761       1.40441761      -0.00000000       0.00000000      -0.00000000 
Si       2.80883522       2.80883522      -0.00000000       0.00000000      -0.00000000       0.00000000 
Si       4.21325283       4.21325283       1.40441761       0.00000000      -0.00000000       0.00000000 
Si       2.80883522       0.00000000       2.80883522       0.00000000      -0.00000000      -0.00000000 
Si       4.21325283       1.40441761       4.21325283       0.00000000      -0.00000000       0.00000000 
Si      -0.00000000       2.80883522       2.80883522       0.00000000      -0.00000000      -0.00000000 
Si       1.40441761       4.21325283       4.21325283       0.00000000       0.00000000      -0.00000000 
8
Lattice="5.659910145511224 -4.417703634545906e-25 -1.1044259086364765e-25 -4.417703634545906e-25 5.659910145511224 -4.417703634545906e-25 -1.1044259086364765e-25 -4.417703634545906e-25 5.659910145511224" Properties=species:S:1:pos:R:3:forces:R:3 stress="0.048932159533542595 1.0328595396923471e-25 -6.885730264615644e-26 1.0328595396923471e-25 0.04893215953354261 1.9217379506169498e-18 -6.885730264615644e-26 1.9217379506169498e-18 0.048932159533542595" energy=-1304.63782102 Minim_Constant_Volume=T Minim_Hydrostatic_Strain=F pbc="T T T"
Si      -0.00000000       0.00000000      -0.00000000       0.00000000      -0.00000000      -0.00000000 
Si       1.41497754       1.41497754       1.41497754      -0.00000000      -0.00000000       0.00000000 
Si       2.82995507       2.82995507      -0.00000000       0.00000000      -0.00000000      -0.00000000 
Si       4.24493261       4.24493261       1.41497754       0.00000000       0.00000000      -0.00000000 
Si       2.82995507       0.00000000       2.82995507       0.00000000       0.00000000       0.00000000 
Si       4.24493261       1.41497754       4.24493261       0.00000000      -0.00000000       0.00000000 
Si      -0.00000000       2.82995507       2.82995507      -0.00000000      -0.00000000      -0.00000000 
Si       1.41497754       4.24493261       4.24493261       0.00000000       0.00000000       0.00000000 
8
Lattice="5.701528626516665 -4.45018791611137e-25 -1.1125469790278424e-25 -4.45018791611137e-25 5.701528626516665 -4.45018791611137e-25 -1.1125469790278424e-25 -4.45018791611137e-25 5.701528626516665" Properties=species:S:1:pos:R:3:forces:R:3 stress="0.05584191787553971 0.0 0.0 0.0 0.05584191787553971 8.505001923006651e-53 0.0 8.505001923006651e-53 0.05584191787553971" energy=-1304.42652596 Minim_Constant_Volume=T Minim_Hydrostatic_Strain=F pbc="T T T"
Si      -0.00000000       0.00000000      -0.00000000       0.00000000      -0.00000000      -0.00000000 
Si       1.42538216       1.42538216       1.42538216      -0.00000000       0.00000000      -0.00000000 
Si       2.85076431       2.85076431      -0.00000000      -0.00000000      -0.00000000       0.00000000 
Si       4.27614647       4.27614647       1.42538216       0.00000000      -0.00000000      -0.00000000 
Si       2.85076431       0.00000000       2.85076431       0.00000000      -0.00000000      -0.00000000 
Si       4.27614647       1.42538216       4.27614647      -0.00000000       0.00000000       0.00000000 
Si      -0.00000000       2.85076431       2.85076431      -0.00000000       0.00000000       0.00000000 
Si       1.42538216       4.27614647       4.27614647       0.00000000       0.00000000       0.00000000 
