2
Lattice="3.244802359415453 1.3597182854688121e-36 4.075071221238656e-37 1.359718285468809e-36 3.244802359415453 -3.099071476293247e-20 4.075071221238648e-37 -3.099071476293247e-20 3.244802359415453" Properties=species:S:1:pos:R:3:Z:I:1:forces:R:3 stress="-2.172972165156224e-05 6.707109827130545e-35 4.877898056094945e-35 6.707109827130545e-35 -2.172972165156222e-05 3.718269238736885e-21 4.877898056094945e-35 3.718269238736885e-21 -2.1729721651562236e-05" energy=-8.10812535635 Minim_Constant_Volume=T Minim_Hydrostatic_Strain=F pbc="T T T"
Si       0.00000000       0.00000000       0.00000000       14       0.00000000       0.00000000       0.00000000 
Si       1.62240118       1.62240118       1.62240118       14       0.00000000       0.00000000       0.00000000 
2
Lattice="3.217533823488784 1.34829154115267e-36 4.040825306174634e-37 1.3482915411526668e-36 3.217533823488784 -3.073027627537589e-20 4.040825306174625e-37 -3.073027627537589e-20 3.217533823488784" Properties=species:S:1:pos:R:3:Z:I:1:forces:R:3 stress="-0.1277403696659422 -1.6123017926884427e-34 -9.921857185775032e-35 -1.6123017926884427e-34 -0.12774036966594227 -2.1743725291773966e-18 -9.921857185775032e-35 -2.1743725291773966e-18 -0.12774036966594227" energy=-8.05521672702 Minim_Constant_Volume=T Minim_Hydrostatic_Strain=F pbc="T T T"
Si       0.00000000       0.00000000       0.00000000       14      -0.00000000       0.00000000       0.00000000 
Si       1.60876691       1.60876691       1.60876691       14      -0.00000000       0.00000000      -0.00000000 
2
Lattice="3.1897950826382426 1.3366677598024998e-36 4.005988871768872e-37 1.3366677598024966e-36 3.1897950826382426 -3.0465346917479066e-20 4.005988871768863e-37 -3.0465346917479066e-20 3.1897950826382426" Properties=species:S:1:pos:R:3:Z:I:1:forces:R:3 stress="-0.2795024576073002 -2.523792548897591e-35 -2.0190340391180734e-34 -2.523792548897591e-35 -0.2795024576073001 1.603227241843513e-17 -2.0190340391180734e-34 1.603227241843513e-17 -0.2795024576073001" energy=-7.88307490293 Minim_Constant_Volume=T Minim_Hydrostatic_Strain=F pbc="T T T"
Si       0.00000000       0.00000000       0.00000000       14       0.00000000       0.00000000       0.00000000 
Si       1.59489754       1.59489754       1.59489754       14       0.00000000       0.00000000       0.00000000 
2
Lattice="3.1615653270825823 1.3248382211830008e-36 3.970535783504908e-37 1.3248382211829978e-36 3.1615653270825823 -3.019572793753898e-20 3.9705357835049e-37 -3.019572793753898e-20 3.1615653270825823" Properties=species:S:1:pos:R:3:Z:I:1:forces:R:3 stress="-0.45690390955839943 3.5324628270893516e-35 -5.138127748493604e-35 3.5324628270893516e-35 -0.45690390955839927 7.229122540425908e-18 -5.138127748493604e-35 7.229122540425908e-18 -0.4569039095583996" energy=-7.57047450142 Minim_Constant_Volume=T Minim_Hydrostatic_Strain=F pbc="T T T"
Si       0.00000000       0.00000000       0.00000000       14      -0.00000000       0.00000000      -0.00000000 
Si       1.58078266       1.58078266       1.58078266       14       0.00000000      -0.00000000       0.00000000 
2
Lattice="3.132822233158921 1.3127935706743054e-36 3.934438005617822e-37 1.3127935706743024e-36 3.132822233158921 -2.992120612495227e-20 3.934438005617814e-37 -2.992120612495227e-20 3.132822233158921" Properties=species:S:1:pos:R:3:Z:I:1:forces:R:3 stress="-0.6614331688900859 -1.5698529307827016e-34 -2.8780637064349537e-34 -1.5698529307827016e-34 -0.6614331688900856 1.2977480664318654e-17 -2.8780637064349537e-34 1.2977480664318654e-17 -0.6614331688900859" energy=-7.09487480157 Minim_Constant_Volume=T Minim_Hydrostatic_Strain=F pbc="T T T"
Si       0.00000000       0.00000000       0.00000000       14       0.00000000       0.00000000       0.00000000 
Si       1.56641112       1.56641112       1.56641112       14       0.00000000       0.00000000       0.00000000 
2
Lattice="3.103541807629621 1.30052375402955e-36 3.897665405562893e-37 1.300523754029547e-36 3.103541807629621 -2.964155232320907e-20 3.897665405562886e-37 -2.964155232320907e-20 3.103541807629621" Properties=species:S:1:pos:R:3:Z:I:1:forces:R:3 stress="-0.8944998954234489 -2.132819039517448e-34 -6.665059498492026e-35 -2.132819039517448e-34 -0.8944998954234481 1.7572028976762233e-17 -6.665059498492026e-35 1.7572028976762233e-17 -0.8944998954234485" energy=-6.43249970955 Minim_Constant_Volume=T Minim_Hydrostatic_Strain=F pbc="T T T"
Si       0.00000000       0.00000000       0.00000000       14      -0.00000000      -0.00000000      -0.00000000 
Si       1.55177090       1.55177090       1.55177090       14       0.00000000      -0.00000000       0.00000000 
2
Lattice="3.271620123989491 1.3709561362922707e-36 4.108751023127515e-37 1.3709561362922676e-36 3.271620123989491 -3.124684798783656e-20 4.108751023127507e-37 -3.124684798783656e-20 3.271620123989491" Properties=species:S:1:pos:R:3:Z:I:1:forces:R:3 stress="0.10537905725345434 1.4394770023615838e-34 4.798256674538614e-34 1.4394770023615838e-34 0.10537905725345431 -2.8639940115567107e-18 4.798256674538614e-34 -2.8639940115567107e-18 0.10537905725345438" energy=-8.06160905795 Minim_Constant_Volume=T Minim_Hydrostatic_Strain=F pbc="T T T"
Si       0.00000000       0.00000000       0.00000000       14       0.00000000       0.00000000       0.00000000 
Si       1.63581006       1.63581006       1.63581006       14       0.00000000       0.00000000       0.00000000 
2
Lattice="3.2980052966941074 1.3820127116450396e-36 4.141887543028026e-37 1.3820127116450365e-36 3.2980052966941074 -3.1498849580132857e-20 4.141887543028017e-37 -3.1498849580132857e-20 3.2980052966941074" Properties=species:S:1:pos:R:3:Z:I:1:forces:R:3 stress="0.19033161767173665 -9.443576786912675e-34 -8.499219108221408e-34 -9.443576786912675e-34 0.19033161767173665 -1.963943923953814e-18 -8.499219108221408e-34 -1.963943923953814e-18 0.19033161767173665" energy=-7.93394147519 Minim_Constant_Volume=T Minim_Hydrostatic_Strain=F pbc="T T T"
Si       0.00000000       0.00000000       0.00000000       14      -0.00000000       0.00000000      -0.00000000 
Si       1.64900265       1.64900265       1.64900265       14       0.00000000       0.00000000      -0.00000000 
2
Lattice="3.3239749115791706 1.3928951495609702e-36 4.17450217360412e-37 1.3928951495609669e-36 3.3239749115791706 -3.1746882229970795e-20 4.1745021736041114e-37 -3.1746882229970795e-20 3.3239749115791706" Properties=species:S:1:pos:R:3:Z:I:1:forces:R:3 stress="0.25685413415573355 -9.296591308824855e-35 3.2538069580887e-34 -9.296591308824855e-35 0.25685413415573377 3.090933113751221e-17 3.2538069580887e-34 3.090933113751221e-17 0.25685413415573355" energy=-7.74173589552 Minim_Constant_Volume=T Minim_Hydrostatic_Strain=F pbc="T T T"
Si       0.00000000       0.00000000       0.00000000       14       0.00000000      -0.00000000       0.00000000 
Si       1.66198746       1.66198746       1.66198746       14      -0.00000000       0.00000000       0.00000000 
2
Lattice="3.3495449542104767 1.403610148711879e-36 4.2066149907531595e-37 1.4036101487118759e-36 3.3495449542104767 -3.199109861355527e-20 4.206614990753151e-37 -3.199109861355527e-20 3.3495449542104767" Properties=species:S:1:pos:R:3:Z:I:1:forces:R:3 stress="0.30710544385527 -3.662077940749146e-34 -1.8310389703745732e-34 -3.662077940749146e-34 0.30710544385526983 1.09571995413965e-18 -1.8310389703745732e-34 1.09571995413965e-18 0.30710544385526983" energy=-7.49982075356 Minim_Constant_Volume=T Minim_Hydrostatic_Strain=F pbc="T T T"
Si       0.00000000       0.00000000       0.00000000       14       0.00000000       0.00000000       0.00000000 
Si       1.67477248       1.67477248       1.67477248       14       0.00000000       0.00000000       0.00000000 
2
Lattice="3.374730448410367 1.4141640047557735e-36 4.238244862541448e-37 1.4141640047557702e-36 3.374730448410367 -3.223164222159583e-20 4.238244862541439e-37 -3.223164222159583e-20 3.374730448410367" Properties=species:S:1:pos:R:3:Z:I:1:forces:R:3 stress="0.343361549109977 -5.411432979722356e-34 -7.2152439729631456e-34 -5.411432979722356e-34 0.3433615491099767 -8.96040887436852e-17 -7.2152439729631456e-34 -8.96040887436852e-17 0.3433615491099771" energy=-7.22112829859 Minim_Constant_Volume=T Minim_Hydrostatic_Strain=F pbc="T T T"
Si       0.00000000       0.00000000       0.00000000       14       0.00000000       0.00000000      -0.00000000 
Si       1.68736522       1.68736522       1.68736522       14       0.00000000      -0.00000000       0.00000000 
2
Lattice="3.3995455340662826 1.4245626429421381e-36 4.269409546922166e-37 1.4245626429421348e-36 3.3995455340662826 -3.2468648102446686e-20 4.269409546922158e-37 -3.2468648102446686e-20 3.3995455340662826" Properties=species:S:1:pos:R:3:Z:I:1:forces:R:3 stress="0.3679730713355528 1.2443012119529985e-33 3.5551463198657106e-34 1.2443012119529985e-33 0.3679730713355525 -3.545642831078493e-17 3.5551463198657106e-34 -3.545642831078493e-17 0.3679730713355528" energy=-6.91661121494 Minim_Constant_Volume=T Minim_Hydrostatic_Strain=F pbc="T T T"
Si       0.00000000       0.00000000       0.00000000       14       0.00000000       0.00000000      -0.00000000 
Si       1.69977277       1.69977277       1.69977277       14       0.00000000      -0.00000000      -0.00000000 
