2
Lattice="2.9461479767979997 2.603021086333438e-21 5.949406275790415e-35 -1.4730739883989992 2.5514389912151954 3.729045556816635e-34 1.0401809008993879e-34 7.330819795143234e-34 4.7769025373347205" Properties=species:S:1:pos:R:3:Z:I:1:forces:R:3 stress="0.0003495663113786594 -1.6263032587282567e-19 9.342278310574309e-33 -1.6263032587282567e-19 0.0003495663113786592 -4.854318548593251e-32 9.342278310574309e-33 -4.854318548593251e-32 0.000438918920047734" energy=-12.1418999672 Minim_Constant_Volume=T Minim_Hydrostatic_Strain=F pbc="T T T"
Ti       0.00000000      -0.00000000      -0.00000000       22       0.00000000      -0.00000000       0.00000000 
Ti       0.00000000       1.70095933       2.38845127       22      -0.00000000       0.00000000      -0.00000000 
2
Lattice="2.9213892602254834 2.581145925338009e-21 5.899408901280688e-35 -1.460694630112741 2.5299973136982974 3.697707557926447e-34 1.031439471645891e-34 7.26921335480774e-34 4.736758601270468" Properties=species:S:1:pos:R:3:Z:I:1:forces:R:3 stress="-0.01643456921608922 1.214306433183765e-17 -3.5870710540371424e-36 1.214306433183765e-17 -0.0164345692160892 -7.233982174856443e-36 -3.5870710540371424e-36 -7.233982174856443e-36 -0.016398475097100976" energy=-12.1348254363 Minim_Constant_Volume=T Minim_Hydrostatic_Strain=F pbc="T T T"
Ti       0.00000000      -0.00000000      -0.00000000       22      -0.00000000       0.00000000       0.00000000 
Ti       0.00000000       1.68666488       2.36837930       22       0.00000000      -0.00000000      -0.00000000 
2
Lattice="2.8962036167921905 2.558893560064426e-21 5.848549397181812e-35 -1.4481018083960946 2.508185906674409 3.6658291823390254e-34 1.0225473095812258e-34 7.2065446039886215e-34 4.695922443355664" Properties=species:S:1:pos:R:3:Z:I:1:forces:R:3 stress="-0.03508181194364644 1.734723475976807e-17 -7.639354096681138e-36 1.734723475976807e-17 -0.03508181194364643 -1.53980553160465e-35 -7.639354096681138e-36 -1.53980553160465e-35 -0.03493104477451193" energy=-12.1118986297 Minim_Constant_Volume=T Minim_Hydrostatic_Strain=F pbc="T T T"
Ti       0.00000000      -0.00000000      -0.00000000       22      -0.00000000       0.00000000       0.00000000 
Ti       0.00000000       1.67212394       2.34796122       22       0.00000000      -0.00000000      -0.00000000 
2
Lattice="2.8709753118298003 6.203307028399631e-17 -1.0884575648189783e-32 -1.4354876559148995 2.486337553682557 1.1426451193251506e-32 -1.76409173203004e-32 1.1183843364441734e-32 4.653056056580544" Properties=species:S:1:pos:R:3:Z:I:1:forces:R:3 stress="-0.05516856304791429 6.938893903907228e-18 -2.9020127564753255e-33 6.938893903907228e-18 -0.05516856304791431 -1.222197789436632e-33 -2.9020127564753255e-33 -1.222197789436632e-33 -0.05516713182291677" energy=-12.0714887198 Minim_Constant_Volume=T Minim_Hydrostatic_Strain=F pbc="T T T"
Ti       0.00000000      -0.00000000      -0.00000000       22       0.00000000       0.00000000       0.00000000 
Ti       0.00000000       1.65755837       2.32652803       22       0.00000000       0.00000000       0.00000000 
2
Lattice="2.845966744328255 -5.602622948061018e-17 6.404442695596542e-33 -1.4229833721641267 2.4646794989139615 5.400758827619727e-32 1.0359654096603906e-32 1.070629901898102e-31 4.607211703107327" Properties=species:S:1:pos:R:3:Z:I:1:forces:R:3 stress="-0.07754433224377524 -6.938893903907228e-18 -3.3742208684432507e-33 -6.938893903907228e-18 -0.07754433224377517 -7.145472062589775e-33 -3.3742208684432507e-33 -7.145472062589775e-33 -0.07755759555925601" energy=-12.0121806626 Minim_Constant_Volume=T Minim_Hydrostatic_Strain=F pbc="T T T"
Ti       0.00000000      -0.00000000      -0.00000000       22      -0.00000000      -0.00000000       0.00000000 
Ti       0.00000000       1.64311967       2.30360585       22       0.00000000       0.00000000      -0.00000000 
2
Lattice="2.821275057791586 2.0508062139995213e-18 -1.4662197192085701e-33 -1.4106375288957924 2.4432958711109243 -6.520979302817236e-33 -2.3609028070709923e-33 -1.3225060749998077e-32 4.557976598966009" Properties=species:S:1:pos:R:3:Z:I:1:forces:R:3 stress="-0.10455932398801865 7.773999082956623e-65 -9.940667205063695e-33 7.773999082956623e-65 -0.10455932398801863 -8.212350923889715e-32 -9.940667205063695e-33 -8.212350923889715e-32 -0.10447844801239528" energy=-11.9307267314 Minim_Constant_Volume=T Minim_Hydrostatic_Strain=F pbc="T T T"
Ti       0.00000000      -0.00000000       0.00000000       22      -0.00000000       0.00000000      -0.00000000 
Ti       0.00000000       1.62886391       2.27898830       22       0.00000000      -0.00000000       0.00000000 
2
Lattice="2.9718240952418395 7.955686893255589e-18 -6.149436480241344e-34 -1.485912047620919 2.573675162058139 -2.2786012166344417e-33 -9.893232311079015e-34 -4.8616862682016694e-33 4.8120806743144735" Properties=species:S:1:pos:R:3:Z:I:1:forces:R:3 stress="0.015821956511320283 1.734723475976807e-18 -9.4132324187785e-36 1.734723475976807e-18 0.015821956511320272 1.5174182624891156e-34 -9.4132324187785e-36 1.5174182624891156e-34 0.01581684345513744" energy=-12.134579614 Minim_Constant_Volume=T Minim_Hydrostatic_Strain=F pbc="T T T"
Ti      -0.00000000       0.00000000      -0.00000000       22      -0.00000000      -0.00000000       0.00000000 
Ti       0.00000000       1.71578344       2.40604034       22       0.00000000       0.00000000      -0.00000000 
2
Lattice="2.996291891775724 9.288301017821866e-17 -2.2661186421900493e-32 -1.4981459458878614 2.5948648954311118 1.9904348376379367e-32 -3.6687813978333934e-32 1.6001535054511716e-32 4.8492717025327865" Properties=species:S:1:pos:R:3:Z:I:1:forces:R:3 stress="0.029860428251221535 -6.938893903907228e-18 2.985271081013811e-33 -6.938893903907228e-18 0.02986042825122146 2.801352579188005e-32 2.985271081013811e-33 2.801352579188005e-32 0.02986503039208758" energy=-12.1139603019 Minim_Constant_Volume=T Minim_Hydrostatic_Strain=F pbc="T T T"
Ti      -0.00000000       0.00000000      -0.00000000       22      -0.00000000      -0.00000000       0.00000000 
Ti       0.00000000       1.72990993       2.42463585       22      -0.00000000       0.00000000      -0.00000000 
2
Lattice="3.0190557361985477 2.4899560140777307e-16 -4.5814310151623697e-32 -1.509527868099273 2.6145789629890737 -1.671858530718029e-32 -7.412900647985286e-32 -7.40869389617043e-32 4.8901434331405484" Properties=species:S:1:pos:R:3:Z:I:1:forces:R:3 stress="0.04231895117988317 -2.42861286636753e-17 6.825744139801493e-33 -2.42861286636753e-17 0.04231895117988312 1.3424592719043026e-32 6.825744139801493e-33 1.3424592719043026e-32 0.04232770444983969" energy=-12.081432591 Minim_Constant_Volume=T Minim_Hydrostatic_Strain=F pbc="T T T"
Ti      -0.00000000       0.00000000      -0.00000000       22       0.00000000       0.00000000       0.00000000 
Ti       0.00000000       1.74305264       2.44507172       22       0.00000000       0.00000000       0.00000000 
2
Lattice="3.041101329090199 3.3812095414443527e-16 3.5014005754348982e-31 -1.5205506645450986 2.6336710064747337 -5.317183610029272e-31 5.6730926149897055e-31 -6.669389548434613e-31 4.931581342893752" Properties=species:S:1:pos:R:3:Z:I:1:forces:R:3 stress="0.05333182140142574 -3.469446951953614e-18 -9.543739364900285e-32 -3.469446951953614e-18 0.053331821401425686 -2.2562240505466973e-31 -9.543739364900285e-32 -2.2562240505466973e-31 0.05335470687032487" energy=-12.0383946294 Minim_Constant_Volume=T Minim_Hydrostatic_Strain=F pbc="T T T"
Ti      -0.00000000       0.00000000      -0.00000000       22      -0.00000000      -0.00000000      -0.00000000 
Ti       0.00000000       1.75578067       2.46579067       22       0.00000000       0.00000000       0.00000000 
2
Lattice="3.061710392047053 3.4041234639905617e-16 1.233230034051359e-30 -1.5308551960235257 2.651518978543563 8.226113548475415e-31 1.9980982011951257e-30 2.6973519027095002e-30 4.975985340769552" Properties=species:S:1:pos:R:3:Z:I:1:forces:R:3 stress="0.06290747781897066 -2.7755575615628914e-17 -2.0125916795069858e-31 -2.7755575615628914e-17 0.06290747781897052 -4.034565757588631e-31 -2.0125916795069858e-31 -4.034565757588631e-31 0.06300210111607286" energy=-11.9860898166 Minim_Constant_Volume=T Minim_Hydrostatic_Strain=F pbc="T T T"
Ti      -0.00000000       0.00000000      -0.00000000       22       0.00000000       0.00000000       0.00000000 
Ti       0.00000000       1.76767932       2.48799267       22      -0.00000000      -0.00000000      -0.00000000 
2
Lattice="3.079893571062635 5.339749947002653e-16 3.315950107119397e-30 -1.5399467855313165 2.6672660734926175 5.2109988972045154e-30 5.374454494352357e-30 1.287562724113689e-29 5.026658109075262" Properties=species:S:1:pos:R:3:Z:I:1:forces:R:3 stress="0.07092742914174752 -4.85722573273506e-17 -3.700029211095214e-31 -4.85722573273506e-17 0.07092742914174738 -9.783707483242056e-31 -3.700029211095214e-31 -9.783707483242056e-31 0.07093450387131113" energy=-11.9258813888 Minim_Constant_Volume=T Minim_Hydrostatic_Strain=F pbc="T T T"
Ti      -0.00000000       0.00000000      -0.00000000       22       0.00000000       0.00000000       0.00000000 
Ti       0.00000000       1.77817738       2.51332905       22      -0.00000000      -0.00000000      -0.00000000 
