2
Lattice="3.1780796005652707 1.6631604130082524e-26 4.631208750900685e-26 1.6631604130082524e-26 3.1780796005652707 1.2430661529931854e-18 4.631208750900685e-26 1.2430661529931854e-18 3.1780796005652707" Properties=species:S:1:pos:R:3:Z:I:1:forces:R:3 stress="-7.401981253544734e-05 1.3649588388110585e-26 1.364958838811059e-26 1.3649588388110585e-26 -7.401981253544736e-05 -2.637271216362336e-22 1.364958838811059e-26 -2.637271216362336e-22 -7.401981253544736e-05" energy=-22.4050871529 Minim_Constant_Volume=T Minim_Hydrostatic_Strain=F pbc="T T T"
W       0.00000000      -0.00000000      -0.00000000       74       0.00000000      -0.00000000       0.00000000 
W       1.58903980       1.58903980       1.58903980       74      -0.00000000       0.00000000      -0.00000000 
2
Lattice="3.151371786601082 1.6491836142851094e-26 4.5922891902558295e-26 1.6491836142851094e-26 3.151371786601082 1.2326197250454976e-18 4.5922891902558295e-26 1.2326197250454976e-18 3.151371786601082" Properties=species:S:1:pos:R:3:Z:I:1:forces:R:3 stress="-0.04728218041924028 1.110554300840522e-25 1.9434700264709124e-25 1.110554300840522e-25 -0.047282180419240344 -8.011678567001198e-18 1.9434700264709124e-25 -8.011678567001198e-18 -0.047282180419240344" energy=-22.3863728966 Minim_Constant_Volume=T Minim_Hydrostatic_Strain=F pbc="T T T"
W       0.00000000      -0.00000000      -0.00000000       74       0.00000000       0.00000000       0.00000000 
W       1.57568589       1.57568589       1.57568589       74       0.00000000       0.00000000       0.00000000 
2
Lattice="3.1242034365206313 1.6349658066718205e-26 4.5526985202745813e-26 1.6349658066718205e-26 3.1242034365206313 1.2219931641463712e-18 4.5526985202745813e-26 1.2219931641463712e-18 3.1242034365206313" Properties=species:S:1:pos:R:3:Z:I:1:forces:R:3 stress="-0.10018539454229716 2.8248831011454897e-26 -5.591722048782698e-43 2.8248831011454897e-26 -0.10018539454229713 -4.049062068538655e-17 -5.591722048782698e-43 -4.049062068538655e-17 -0.1001853945422972" energy=-22.3276556991 Minim_Constant_Volume=T Minim_Hydrostatic_Strain=F pbc="T T T"
W       0.00000000      -0.00000000      -0.00000000       74       0.00000000       0.00000000       0.00000000 
W       1.56210172       1.56210172       1.56210172       74       0.00000000       0.00000000       0.00000000 
2
Lattice="3.096554168453484 1.6204963238779493e-26 4.512407039782464e-26 1.6204963238779493e-26 3.096554168453484 1.211178498181682e-18 4.512407039782464e-26 1.211178498181682e-18 3.096554168453484" Properties=species:S:1:pos:R:3:Z:I:1:forces:R:3 stress="-0.16107610419557641 7.1888883332479e-27 7.1888883332479e-27 7.1888883332479e-27 -0.16107610419557636 4.9102779801311796e-17 7.1888883332479e-27 4.9102779801311796e-17 -0.16107610419557628" energy=-22.2234505453 Minim_Constant_Volume=T Minim_Hydrostatic_Strain=F pbc="T T T"
W       0.00000000      -0.00000000      -0.00000000       74       0.00000000       0.00000000       0.00000000 
W       1.54827708       1.54827708       1.54827708       74       0.00000000       0.00000000       0.00000000 
2
Lattice="3.0684021177774685 1.6057637236557826e-26 4.4713828868873096e-26 1.6057637236557826e-26 3.0684021177774685 1.2001671750774781e-18 4.4713828868873096e-26 1.2001671750774781e-18 3.0684021177774685" Properties=species:S:1:pos:R:3:Z:I:1:forces:R:3 stress="-0.23320372809072223 -1.757137692394272e-25 -2.1964221154928395e-25 -1.757137692394272e-25 -0.23320372809072193 7.564523953205232e-17 -2.1964221154928395e-25 7.564523953205232e-17 -0.2332037280907219" energy=-22.0661359873 Minim_Constant_Volume=T Minim_Hydrostatic_Strain=F pbc="T T T"
W       0.00000000      -0.00000000      -0.00000000       74      -0.00000000      -0.00000000      -0.00000000 
W       1.53420106       1.53420106       1.53420106       74       0.00000000      -0.00000000       0.00000000 
2
Lattice="3.039723784627063 1.5907557079980458e-26 4.4295918167631435e-26 1.5907557079980458e-26 3.039723784627063 1.188950003154789e-18 4.4295918167631435e-26 1.188950003154789e-18 3.039723784627063" Properties=species:S:1:pos:R:3:Z:I:1:forces:R:3 stress="-0.3208942224402591 -7.833216977887392e-26 -2.984082658242815e-26 -7.833216977887392e-26 -0.32089422244025906 -1.9259384499326523e-33 -2.984082658242815e-26 -1.9259384499326523e-33 -0.32089422244025906" energy=-21.8450169282 Minim_Constant_Volume=T Minim_Hydrostatic_Strain=F pbc="T T T"
W       0.00000000      -0.00000000      -0.00000000       74       0.00000000       0.00000000       0.00000000 
W       1.51986189       1.51986189       1.51986189       74       0.00000000       0.00000000       0.00000000 
2
Lattice="3.204345912372584 1.6769061637395698e-26 4.669484939160501e-26 1.6769061637395698e-26 3.204345912372584 1.2533398928849833e-18 4.669484939160501e-26 1.2533398928849833e-18 3.204345912372584" Properties=species:S:1:pos:R:3:Z:I:1:forces:R:3 stress="0.043657226104248825 5.370692690563405e-26 -2.0140097589612753e-26 5.370692690563405e-26 0.043657226104248825 1.7472630094357272e-17 -2.0140097589612753e-26 1.7472630094357272e-17 0.04365722610424884" energy=-22.3872887972 Minim_Constant_Volume=T Minim_Hydrostatic_Strain=F pbc="T T T"
W       0.00000000      -0.00000000      -0.00000000       74       0.00000000       0.00000000       0.00000000 
W       1.60217296       1.60217296       1.60217296       74       0.00000000      -0.00000000       0.00000000 
2
Lattice="3.230188527682146 1.6904301845802748e-26 4.707143702064525e-26 1.6904301845802748e-26 3.230188527682146 1.2634479091821289e-18 4.707143702064525e-26 1.2634479091821289e-18 3.230188527682146" Properties=species:S:1:pos:R:3:Z:I:1:forces:R:3 stress="0.08272465668328532 6.606377099856152e-27 3.9638262599136926e-26 6.606377099856152e-27 0.08272465668328531 -4.320130408104142e-17 3.9638262599136926e-26 -4.320130408104142e-17 0.08272465668328528" energy=-22.3362615498 Minim_Constant_Volume=T Minim_Hydrostatic_Strain=F pbc="T T T"
W       0.00000000      -0.00000000      -0.00000000       74       0.00000000       0.00000000       0.00000000 
W       1.61509426       1.61509426       1.61509426       74       0.00000000       0.00000000       0.00000000 
2
Lattice="3.255624130273246 1.7037412065266741e-26 4.7442093517994726e-26 1.7037412065266741e-26 3.255624130273246 1.2733967275365713e-18 4.7442093517994726e-26 1.2733967275365713e-18 3.255624130273246" Properties=species:S:1:pos:R:3:Z:I:1:forces:R:3 stress="0.11678221112844968 -1.3007102989718124e-26 -1.3007102989718132e-26 -1.3007102989718124e-26 0.11678221112844969 2.816699958460067e-17 -1.3007102989718132e-26 2.816699958460067e-17 0.11678221112844969" energy=-22.255853364 Minim_Constant_Volume=T Minim_Hydrostatic_Strain=F pbc="T T T"
W       0.00000000      -0.00000000      -0.00000000       74       0.00000000      -0.00000000       0.00000000 
W       1.62781207       1.62781207       1.62781207       74       0.00000000      -0.00000000       0.00000000 
2
Lattice="3.280668377001043 1.7168474231626182e-26 4.7807047040822974e-26 1.7168474231626182e-26 3.280668377001043 1.2831924719317077e-18 4.7807047040822974e-26 1.2831924719317077e-18 3.280668377001043" Properties=species:S:1:pos:R:3:Z:I:1:forces:R:3 stress="0.14513475113128196 -4.803476821776371e-27 -1.9213907287105478e-26 -4.803476821776371e-27 0.1451347511312819 1.4569292537129972e-17 -1.9213907287105478e-26 1.4569292537129972e-17 0.14513475113128194" energy=-22.1503562901 Minim_Constant_Volume=T Minim_Hydrostatic_Strain=F pbc="T T T"
W       0.00000000      -0.00000000      -0.00000000       74       0.00000000       0.00000000       0.00000000 
W       1.64033419       1.64033419       1.64033419       74       0.00000000       0.00000000       0.00000000 
2
Lattice="3.3053359827535385 1.7297565351193947e-26 4.8166512019624653e-26 1.7297565351193947e-26 3.3053359827535385 1.2928408979122441e-18 4.8166512019624653e-26 1.2928408979122441e-18 3.3053359827535385" Properties=species:S:1:pos:R:3:Z:I:1:forces:R:3 stress="0.16718746451435992 1.0725975465694246e-25 2.5237589331045283e-26 1.0725975465694246e-25 0.16718746451436012 6.355895150430153e-18 2.5237589331045283e-26 6.355895150430153e-18 0.16718746451436006" energy=-22.0246376281 Minim_Constant_Volume=T Minim_Hydrostatic_Strain=F pbc="T T T"
W       0.00000000      -0.00000000      -0.00000000       74      -0.00000000      -0.00000000      -0.00000000 
W       1.65266799       1.65266799       1.65266799       74       0.00000000       0.00000000      -0.00000000 
2
Lattice="3.3296407966601556 1.7424757899573884e-26 4.852069026875761e-26 1.7424757899573884e-26 3.3296407966601556 1.3023474223922288e-18 4.852069026875761e-26 1.3023474223922288e-18 3.3296407966601556" Properties=species:S:1:pos:R:3:Z:I:1:forces:R:3 stress="0.1896651472123341 -9.247133759208056e-43 -1.6037899223545672e-42 -9.247133759208056e-43 0.1896651472123339 -3.928522107979615e-17 -1.6037899223545672e-42 -3.928522107979615e-17 0.18966514721233393" energy=-21.8816627553 Minim_Constant_Volume=T Minim_Hydrostatic_Strain=F pbc="T T T"
W       0.00000000      -0.00000000      -0.00000000       74       0.00000000       0.00000000      -0.00000000 
W       1.66482040       1.66482040       1.66482040       74      -0.00000000      -0.00000000       0.00000000 
