2
Lattice="3.0012371461923384 1.2231413351207942e-17 -1.7215692479738013e-35 -1.5006185730961685 2.5991476113840766 6.854933818367095e-36 -2.6662153932808976e-35 -1.3443388705977341e-36 4.891430568477181" Properties=species:S:1:pos:R:3:Z:I:1:forces:R:3 stress="-4.5471760405125075e-05 4.462692426667939e-68 2.7987158366440778e-34 4.462692426667939e-68 -4.547176040512503e-05 8.07921015718381e-34 2.7987158366440778e-34 8.07921015718381e-34 -4.040894684934682e-05" energy=-11.8186446562 Minim_Constant_Volume=T Minim_Hydrostatic_Strain=F pbc="T T T"
Ti      -0.00000000       0.00000000       0.00000000       22      -0.00000000      -0.00000000      -0.00000000 
Ti       0.00000000       1.73276507       2.44571528       22       0.00000000      -0.00000000       0.00000000 
2
Lattice="2.9923814549873966 1.0718447352213106e-16 4.0468911736975885e-34 -1.4961907274936976 2.5914783578325267 1.5768140488870042e-33 6.604971805421854e-34 3.3501581893196565e-33 4.796977457733934" Properties=species:S:1:pos:R:3:Z:I:1:forces:R:3 stress="-0.011843011602629435 6.938893903907228e-18 2.8060694941888066e-34 6.938893903907228e-18 -0.011843011602629436 -9.186222711453844e-36 2.8060694941888066e-34 -9.186222711453844e-36 -0.01175574296731893" energy=-11.8134376493 Minim_Constant_Volume=T Minim_Hydrostatic_Strain=F pbc="T T T"
Ti      -0.00000000       0.00000000      -0.00000000       22       0.00000000      -0.00000000      -0.00000000 
Ti       0.00000000       1.72765224       2.39848873       22      -0.00000000       0.00000000       0.00000000 
2
Lattice="2.975784631660108 3.3824997082657354e-17 5.176726818755841e-34 -1.4878923158300534 2.5771050872089725 8.885913501909025e-34 8.474774223268499e-34 2.2105534732767435e-33 4.726556115209398" Properties=species:S:1:pos:R:3:Z:I:1:forces:R:3 stress="-0.02533151373144194 -6.938893903907228e-18 3.936880105695129e-35 -6.938893903907228e-18 -0.025331513731441917 5.822821224038783e-35 3.936880105695129e-35 5.822821224038783e-35 -0.025490858990041082" energy=-11.7955505267 Minim_Constant_Volume=T Minim_Hydrostatic_Strain=F pbc="T T T"
Ti      -0.00000000      -0.00000000       0.00000000       22       0.00000000      -0.00000000      -0.00000000 
Ti       0.00000000       1.71807006       2.36327806       22      -0.00000000      -0.00000000      -0.00000000 
2
Lattice="2.9592275543553423 -2.719161638691208e-16 2.689467274402008e-34 -1.4796137771776707 2.5627662376506226 -2.9924889872696216e-34 4.603585024184181e-34 -1.760046015912708e-34 4.653795084979787" Properties=species:S:1:pos:R:3:Z:I:1:forces:R:3 stress="-0.03830833474507611 -1.0408340855860843e-17 4.5318246798575433e-35 -1.0408340855860843e-17 -0.03830833474507609 1.0590308867324426e-34 4.5318246798575433e-35 1.0590308867324426e-34 -0.038362295464544546" energy=-11.7650940438 Minim_Constant_Volume=T Minim_Hydrostatic_Strain=F pbc="T T T"
Ti      -0.00000000       0.00000000       0.00000000       22      -0.00000000       0.00000000      -0.00000000 
Ti       0.00000000       1.70851083       2.32689754       22       0.00000000      -0.00000000       0.00000000 
2
Lattice="2.9400047316559577 -1.9711828470057305e-16 5.127019938642287e-35 -1.4700023658279784 2.5461187848605116 -1.2244304825750651e-33 1.2106865825933836e-34 -2.056829178143169e-33 4.58747901315561" Properties=species:S:1:pos:R:3:Z:I:1:forces:R:3 stress="-0.05035642353210691 -2.0816681711721685e-17 1.533558824430125e-34 -2.0816681711721685e-17 -0.05035642353210686 2.5814174510384855e-34 1.533558824430125e-34 2.5814174510384855e-34 -0.05033733179388234" energy=-11.7227077201 Minim_Constant_Volume=T Minim_Hydrostatic_Strain=F pbc="T T T"
Ti      -0.00000000       0.00000000       0.00000000       22       0.00000000      -0.00000000       0.00000000 
Ti       0.00000000       1.69741252       2.29373951       22      -0.00000000       0.00000000      -0.00000000 
2
Lattice="2.914765367977082 -2.8506007379984923e-16 -1.3250783452836394e-33 -1.4573826839885407 2.524260854739251 -2.8824623792691583e-33 -2.0267081661319206e-33 -6.289890887648869e-33 4.537708715081325" Properties=species:S:1:pos:R:3:Z:I:1:forces:R:3 stress="-0.06032653796404027 2.0816681711721685e-17 2.977879200299712e-35 2.0816681711721685e-17 -0.060326537964040285 -3.7379789816074617e-34 2.977879200299712e-35 -3.7379789816074617e-34 -0.06030549671475935" energy=-11.6697885131 Minim_Constant_Volume=T Minim_Hydrostatic_Strain=F pbc="T T T"
Ti      -0.00000000       0.00000000       0.00000000       22      -0.00000000       0.00000000      -0.00000000 
Ti       0.00000000       1.68284057       2.26885436       22       0.00000000      -0.00000000      -0.00000000 
2
Lattice="3.008095303174508 -1.3702413556861802e-17 -2.829270334603552e-35 -1.5040476515872534 2.6050869495537774 3.080683703927797e-33 -4.4208987249660995e-35 5.773046523545259e-33 4.990356292745224" Properties=species:S:1:pos:R:3:Z:I:1:forces:R:3 stress="0.011850190630168286 8.673617379884035e-19 5.92568196923075e-34 8.673617379884035e-19 0.011850190630168279 1.3663250952900476e-33 5.92568196923075e-34 1.3663250952900476e-33 0.011805884202937095" energy=-11.813480489 Minim_Constant_Volume=T Minim_Hydrostatic_Strain=F pbc="T T T"
Ti      -0.00000000       0.00000000       0.00000000       22       0.00000000      -0.00000000      -0.00000000 
Ti       0.00000000       1.73672463       2.49517815       22      -0.00000000       0.00000000       0.00000000 
2
Lattice="3.030849286787664 -6.683592152802451e-17 3.2111409254080716e-34 -1.5154246433938314 2.624792477400065 8.48213985373691e-33 5.355444129608373e-34 1.644463768324216e-32 5.036128099927942" Properties=species:S:1:pos:R:3:Z:I:1:forces:R:3 stress="0.026567119411457944 -5.204170427930421e-18 2.4093515745457354e-34 -5.204170427930421e-18 0.02656711941145792 7.707200114979182e-34 2.4093515745457354e-34 7.707200114979182e-34 0.026555937457967534" energy=-11.7951402737 Minim_Constant_Volume=T Minim_Hydrostatic_Strain=F pbc="T T T"
Ti      -0.00000000       0.00000000      -0.00000000       22      -0.00000000       0.00000000       0.00000000 
Ti       0.00000000       1.74986165       2.51806405       22       0.00000000      -0.00000000      -0.00000000 
2
Lattice="3.0574612169316984 -2.2121695606388085e-16 -3.862174070081994e-33 -1.5287306084658487 2.6478390849485356 4.719030785516308e-33 -6.41403518750969e-33 5.255106432081678e-33 5.06666297962984" Properties=species:S:1:pos:R:3:Z:I:1:forces:R:3 stress="0.041047749105438174 2.0816681711721685e-17 5.401668028485428e-34 2.0816681711721685e-17 0.041047749105438146 2.705054384685286e-33 5.401668028485428e-34 2.705054384685286e-33 0.041063585244428234" energy=-11.762830672 Minim_Constant_Volume=T Minim_Hydrostatic_Strain=F pbc="T T T"
Ti      -0.00000000       0.00000000       0.00000000       22      -0.00000000       0.00000000      -0.00000000 
Ti       0.00000000       1.76522606       2.53333149       22       0.00000000      -0.00000000       0.00000000 
2
Lattice="3.0836755792811816 -1.233018608513176e-16 -1.933303281003219e-32 -1.5418377896405904 2.670541388687199 -1.9771921518981747e-32 -3.2068548147801444e-32 -5.639694505090363e-32 5.096720834570081" Properties=species:S:1:pos:R:3:Z:I:1:forces:R:3 stress="0.05438127322399304 -2.7755575615628914e-17 2.5054644573538702e-33 -2.7755575615628914e-17 0.054381273223993 6.536824810232989e-33 2.5054644573538702e-33 6.536824810232989e-33 0.054457845366064364" energy=-11.7171859252 Minim_Constant_Volume=T Minim_Hydrostatic_Strain=F pbc="T T T"
Ti      -0.00000000       0.00000000      -0.00000000       22       0.00000000      -0.00000000       0.00000000 
Ti       0.00000000       1.78036093       2.54836042       22       0.00000000       0.00000000      -0.00000000 
2
Lattice="3.1089332194420076 -1.2431179654412126e-16 -8.033831618856308e-32 -1.5544666097210034 2.6924151467061215 -1.2049695639020913e-31 -1.3296376683664971e-31 -3.0695943416857078e-31 5.128208534030041" Properties=species:S:1:pos:R:3:Z:I:1:forces:R:3 stress="0.06628920759289346 2.0816681711721685e-17 9.32970216612665e-33 2.0816681711721685e-17 0.06628920759289336 2.4205508108816115e-32 9.32970216612665e-33 2.4205508108816115e-32 0.06629850227980254" energy=-11.6595250454 Minim_Constant_Volume=T Minim_Hydrostatic_Strain=F pbc="T T T"
Ti      -0.00000000       0.00000000       0.00000000       22       0.00000000      -0.00000000       0.00000000 
Ti       0.00000000       1.79494343       2.56410427       22      -0.00000000       0.00000000      -0.00000000 
2
Lattice="3.13812312437127 -4.2109921657073465e-16 -3.1425414633728853e-31 -1.5690615621856348 2.717694345908918 -5.469414122193101e-31 -5.196230339836503e-31 -1.3438483824697244e-30 5.145043787146716" Properties=species:S:1:pos:R:3:Z:I:1:forces:R:3 stress="0.07688039048090985 6.938893903907228e-18 3.414266784767408e-32 6.938893903907228e-18 0.07688039048090968 9.391787870843752e-32 3.414266784767408e-32 9.391787870843752e-32 0.07696145695289937" energy=-11.5911484985 Minim_Constant_Volume=T Minim_Hydrostatic_Strain=F pbc="T T T"
Ti      -0.00000000       0.00000000       0.00000000       22       0.00000000      -0.00000000      -0.00000000 
Ti       0.00000000       1.81179623       2.57252189       22       0.00000000       0.00000000       0.00000000 
