8
Lattice="5.459873839759827 -1.3487604934323878e-26 -5.924007700812331e-25 -1.3487604934323878e-26 5.459873839759827 1.3629375530998717e-19 -5.924007700812331e-25 1.3629375530998717e-19 5.459873839759827" Properties=species:S:1:pos:R:3:Z:I:1:forces:R:3 stress="-0.00012382750009970055 -1.479905074976484e-25 -2.9598101499529685e-25 -1.479905074976484e-25 -0.00012382750009970066 -1.1715181610155511e-20 -2.9598101499529685e-25 -1.1715181610155511e-20 -0.00012382750009970058" energy=-1305.42063651 Minim_Constant_Volume=T Minim_Hydrostatic_Strain=F pbc="T T T"
Si      -0.00000000      -0.00000000       0.00000000       14      -0.00000000      -0.00000000       0.00000000 
Si       1.36496846       1.36496846       1.36496846       14      -0.00000000       0.00000000      -0.00000000 
Si       2.72993692       2.72993692       0.00000000       14      -0.00000000      -0.00000000      -0.00000000 
Si       4.09490538       4.09490538       1.36496846       14      -0.00000000       0.00000000       0.00000000 
Si       2.72993692       0.00000000       2.72993692       14      -0.00000000      -0.00000000      -0.00000000 
Si       4.09490538       1.36496846       4.09490538       14      -0.00000000       0.00000000       0.00000000 
Si      -0.00000000       2.72993692       2.72993692       14      -0.00000000       0.00000000      -0.00000000 
Si       1.36496846       4.09490538       4.09490538       14      -0.00000000       0.00000000       0.00000000 
8
Lattice="5.4139903776985525 -1.337425835755962e-26 -5.874223769797017e-25 -1.337425835755962e-26 5.4139903776985525 1.3514837548354974e-19 -5.874223769797017e-25 1.3514837548354974e-19 5.4139903776985525" Properties=species:S:1:pos:R:3:Z:I:1:forces:R:3 stress="-0.015329460030534061 -1.505095702448457e-25 -3.0101914048969143e-25 -1.505095702448457e-25 -0.015329460030534066 5.3042572002166045e-18 -3.0101914048969143e-25 5.3042572002166045e-18 -0.015329460030534061" energy=-1305.38999656 Minim_Constant_Volume=T Minim_Hydrostatic_Strain=F pbc="T T T"
Si      -0.00000000      -0.00000000       0.00000000       14      -0.00000000       0.00000000       0.00000000 
Si       1.35349759       1.35349759       1.35349759       14      -0.00000000      -0.00000000      -0.00000000 
Si       2.70699519       2.70699519       0.00000000       14      -0.00000000       0.00000000      -0.00000000 
Si       4.06049278       4.06049278       1.35349759       14      -0.00000000      -0.00000000      -0.00000000 
Si       2.70699519       0.00000000       2.70699519       14      -0.00000000       0.00000000       0.00000000 
Si       4.06049278       1.35349759       4.06049278       14      -0.00000000      -0.00000000       0.00000000 
Si      -0.00000000       2.70699519       2.70699519       14       0.00000000       0.00000000       0.00000000 
Si       1.35349759       4.06049278       4.06049278       14       0.00000000       0.00000000       0.00000000 
8
Lattice="5.367315724286063 -1.3258957289412253e-26 -5.823581389704861e-25 -1.3258957289412253e-26 5.367315724286063 1.3398324530324135e-19 -5.823581389704861e-25 1.3398324530324135e-19 5.367315724286063" Properties=species:S:1:pos:R:3:Z:I:1:forces:R:3 stress="-0.03263333621916087 -4.479051248628242e-41 1.5313864120774414e-25 -4.479051248628242e-41 -0.032633336219160855 1.1509778490979654e-17 1.5313864120774414e-25 1.1509778490979654e-17 -0.032633336219160855" energy=-1305.292558 Minim_Constant_Volume=T Minim_Hydrostatic_Strain=F pbc="T T T"
Si      -0.00000000      -0.00000000       0.00000000       14      -0.00000000      -0.00000000      -0.00000000 
Si       1.34182893       1.34182893       1.34182893       14      -0.00000000       0.00000000       0.00000000 
Si       2.68365786       2.68365786       0.00000000       14       0.00000000      -0.00000000      -0.00000000 
Si       4.02548679       4.02548679       1.34182893       14      -0.00000000       0.00000000       0.00000000 
Si       2.68365786       0.00000000       2.68365786       14       0.00000000      -0.00000000      -0.00000000 
Si       4.02548679       1.34182893       4.02548679       14      -0.00000000       0.00000000       0.00000000 
Si      -0.00000000       2.68365786       2.68365786       14       0.00000000      -0.00000000      -0.00000000 
Si       1.34182893       4.02548679       4.02548679       14      -0.00000000       0.00000000       0.00000000 
8
Lattice="5.319814863898087 -1.3141615230281146e-26 -5.7720425682975965e-25 -1.3141615230281146e-26 5.319814863898087 1.327974906809299e-19 -5.7720425682975965e-25 1.327974906809299e-19 5.319814863898087" Properties=species:S:1:pos:R:3:Z:I:1:forces:R:3 stress="-0.05145617563047573 7.207580298977939e-44 -2.138513345192083e-42 7.207580298977939e-44 -0.05145617563047576 -1.6620049917118252e-17 -2.138513345192083e-42 -1.6620049917118252e-17 -0.05145617563047572" energy=-1305.12296603 Minim_Constant_Volume=T Minim_Hydrostatic_Strain=F pbc="T T T"
Si      -0.00000000      -0.00000000       0.00000000       14       0.00000000      -0.00000000       0.00000000 
Si       1.32995372       1.32995372       1.32995372       14       0.00000000      -0.00000000       0.00000000 
Si       2.65990743       2.65990743       0.00000000       14       0.00000000      -0.00000000       0.00000000 
Si       3.98986115       3.98986115       1.32995372       14      -0.00000000       0.00000000      -0.00000000 
Si       2.65990743       0.00000000       2.65990743       14      -0.00000000      -0.00000000       0.00000000 
Si       3.98986115       1.32995372       3.98986115       14      -0.00000000      -0.00000000       0.00000000 
Si      -0.00000000       2.65990743       2.65990743       14       0.00000000      -0.00000000      -0.00000000 
Si       1.32995372       3.98986115       3.98986115       14       0.00000000       0.00000000      -0.00000000 
8
Lattice="5.271450233574092 -1.3022139387844217e-26 -5.7195665494563085e-25 -1.3022139387844217e-26 5.271450233574092 1.315901739398298e-19 -5.7195665494563085e-25 1.315901739398298e-19 5.271450233574092" Properties=species:S:1:pos:R:3:Z:I:1:forces:R:3 stress="-0.07353341125034153 -1.5875918223486597e-25 -2.420285805774507e-41 -1.5875918223486597e-25 -0.07353341125034153 9.896561350027197e-18 -2.420285805774507e-41 9.896561350027197e-18 -0.0735334112503415" energy=-1304.86967362 Minim_Constant_Volume=T Minim_Hydrostatic_Strain=F pbc="T T T"
Si      -0.00000000      -0.00000000       0.00000000       14      -0.00000000      -0.00000000       0.00000000 
Si       1.31786256       1.31786256       1.31786256       14       0.00000000      -0.00000000      -0.00000000 
Si       2.63572512       2.63572512       0.00000000       14      -0.00000000       0.00000000       0.00000000 
Si       3.95358768       3.95358768       1.31786256       14       0.00000000       0.00000000       0.00000000 
Si       2.63572512       0.00000000       2.63572512       14      -0.00000000       0.00000000       0.00000000 
Si       3.95358768       1.31786256       3.95358768       14       0.00000000       0.00000000       0.00000000 
Si      -0.00000000       2.63572512       2.63572512       14      -0.00000000       0.00000000       0.00000000 
Si       1.31786256       3.95358768       3.95358768       14       0.00000000      -0.00000000      -0.00000000 
8
Lattice="5.222181461039896 -1.2900430029891444e-26 -5.666109528933837e-25 -1.2900430029891444e-26 5.222181461039896 1.303602872748122e-19 -5.666109528933837e-25 1.303602872748122e-19 5.222181461039896" Properties=species:S:1:pos:R:3:Z:I:1:forces:R:3 stress="-0.09884096909154179 1.6176894659803572e-25 -5.7345833676119304e-42 1.6176894659803572e-25 -0.09884096909154179 1.0514121070527893e-17 -5.7345833676119304e-42 1.0514121070527893e-17 -0.09884096909154183" energy=-1304.52036272 Minim_Constant_Volume=T Minim_Hydrostatic_Strain=F pbc="T T T"
Si      -0.00000000      -0.00000000       0.00000000       14       0.00000000       0.00000000       0.00000000 
Si       1.30554537       1.30554537       1.30554537       14       0.00000000      -0.00000000       0.00000000 
Si       2.61109073       2.61109073       0.00000000       14      -0.00000000      -0.00000000       0.00000000 
Si       3.91663610       3.91663610       1.30554537       14       0.00000000      -0.00000000       0.00000000 
Si       2.61109073       0.00000000       2.61109073       14       0.00000000      -0.00000000       0.00000000 
Si       3.91663610       1.30554537       3.91663610       14       0.00000000       0.00000000      -0.00000000 
Si      -0.00000000       2.61109073       2.61109073       14      -0.00000000       0.00000000      -0.00000000 
Si       1.30554537       3.91663610       3.91663610       14      -0.00000000      -0.00000000       0.00000000 
8
Lattice="5.504998810411354 -1.3599077798841115e-26 -5.972968662454319e-25 -1.3599077798841115e-26 5.504998810411354 1.374202010647521e-19 -5.972968662454319e-25 1.374202010647521e-19 5.504998810411354" Properties=species:S:1:pos:R:3:Z:I:1:forces:R:3 stress="0.012996854299957221 1.18884196474225e-41 7.278713415112084e-26 1.18884196474225e-41 0.01299685429995722 -1.5977936031148339e-18 7.278713415112084e-26 -1.5977936031148339e-18 0.012996854299957223" energy=-1305.39363163 Minim_Constant_Volume=T Minim_Hydrostatic_Strain=F pbc="T T T"
Si      -0.00000000      -0.00000000       0.00000000       14       0.00000000      -0.00000000      -0.00000000 
Si       1.37624970       1.37624970       1.37624970       14      -0.00000000       0.00000000       0.00000000 
Si       2.75249941       2.75249941       0.00000000       14      -0.00000000       0.00000000      -0.00000000 
Si       4.12874911       4.12874911       1.37624970       14      -0.00000000      -0.00000000       0.00000000 
Si       2.75249941       0.00000000       2.75249941       14       0.00000000       0.00000000      -0.00000000 
Si       4.12874911       1.37624970       4.12874911       14      -0.00000000      -0.00000000       0.00000000 
Si      -0.00000000       2.75249941       2.75249941       14      -0.00000000      -0.00000000      -0.00000000 
Si       1.37624970       4.12874911       4.12874911       14      -0.00000000       0.00000000       0.00000000 
8
Lattice="5.549395879400613 -1.370875251740483e-26 -6.02113984484879e-25 -1.370875251740483e-26 5.549395879400613 1.3852847635368605e-19 -6.02113984484879e-25 1.3852847635368605e-19 5.549395879400613" Properties=species:S:1:pos:R:3:Z:I:1:forces:R:3 stress="0.024113358736052058 1.074407233312793e-24 -5.419072960443482e-40 1.074407233312793e-24 0.02411335873605204 -7.980866317765398e-18 -5.419072960443482e-40 -7.980866317765398e-18 0.024113358736052068" energy=-1305.31773267 Minim_Constant_Volume=T Minim_Hydrostatic_Strain=F pbc="T T T"
Si      -0.00000000      -0.00000000       0.00000000       14      -0.00000000      -0.00000000      -0.00000000 
Si       1.38734897       1.38734897       1.38734897       14      -0.00000000       0.00000000       0.00000000 
Si       2.77469794       2.77469794       0.00000000       14       0.00000000       0.00000000      -0.00000000 
Si       4.16204691       4.16204691       1.38734897       14      -0.00000000       0.00000000      -0.00000000 
Si       2.77469794       0.00000000       2.77469794       14      -0.00000000      -0.00000000      -0.00000000 
Si       4.16204691       1.38734897       4.16204691       14      -0.00000000       0.00000000       0.00000000 
Si      -0.00000000       2.77469794       2.77469794       14       0.00000000      -0.00000000      -0.00000000 
Si       1.38734897       4.16204691       4.16204691       14       0.00000000      -0.00000000      -0.00000000 
8
Lattice="5.59309370910915 -1.3816699895108713e-26 -6.068552346913772e-25 -1.3816699895108713e-26 5.59309370910915 1.3961929667017432e-19 -6.068552346913772e-25 1.3961929667017432e-19 5.59309370910915" Properties=species:S:1:pos:R:3:Z:I:1:forces:R:3 stress="0.033804635074035055 1.4102460219234632e-25 -1.0576845164425974e-25 1.4102460219234632e-25 0.03380463507403507 -3.9127567770730696e-18 -1.0576845164425974e-25 -3.9127567770730696e-18 0.033804635074035055" energy=-1305.19936553 Minim_Constant_Volume=T Minim_Hydrostatic_Strain=F pbc="T T T"
Si      -0.00000000      -0.00000000       0.00000000       14      -0.00000000       0.00000000      -0.00000000 
Si       1.39827343       1.39827343       1.39827343       14      -0.00000000       0.00000000       0.00000000 
Si       2.79654685       2.79654685       0.00000000       14      -0.00000000      -0.00000000       0.00000000 
Si       4.19482028       4.19482028       1.39827343       14      -0.00000000       0.00000000       0.00000000 
Si       2.79654685       0.00000000       2.79654685       14       0.00000000       0.00000000      -0.00000000 
Si       4.19482028       1.39827343       4.19482028       14       0.00000000       0.00000000       0.00000000 
Si      -0.00000000       2.79654685       2.79654685       14      -0.00000000      -0.00000000      -0.00000000 
Si       1.39827343       4.19482028       4.19482028       14      -0.00000000       0.00000000       0.00000000 
8
Lattice="5.636119197684473 -1.392298637883372e-26 -6.115235353358961e-25 -1.392298637883372e-26 5.636119197684473 1.4069333346737543e-19 -6.115235353358961e-25 1.4069333346737543e-19 5.636119197684473" Properties=species:S:1:pos:R:3:Z:I:1:forces:R:3 stress="0.04231984580900293 -5.424987861012743e-26 -3.471992231048156e-26 -5.424987861012743e-26 0.04231984580900293 4.215892039053491e-18 -3.471992231048156e-26 4.215892039053491e-18 0.04231984580900293" energy=-1305.04423041 Minim_Constant_Volume=T Minim_Hydrostatic_Strain=F pbc="T T T"
Si      -0.00000000      -0.00000000       0.00000000       14      -0.00000000       0.00000000       0.00000000 
Si       1.40902980       1.40902980       1.40902980       14       0.00000000      -0.00000000      -0.00000000 
Si       2.81805960       2.81805960       0.00000000       14      -0.00000000       0.00000000       0.00000000 
Si       4.22708940       4.22708940       1.40902980       14      -0.00000000       0.00000000      -0.00000000 
Si       2.81805960       0.00000000       2.81805960       14      -0.00000000       0.00000000       0.00000000 
Si       4.22708940       1.40902980       4.22708940       14       0.00000000       0.00000000      -0.00000000 
Si      -0.00000000       2.81805960       2.81805960       14      -0.00000000       0.00000000       0.00000000 
Si       1.40902980       4.22708940       4.22708940       14       0.00000000       0.00000000       0.00000000 
8
Lattice="5.67849762499435 -1.4027674417801067e-26 -6.161216293047316e-25 -1.4027674417801067e-26 5.67849762499435 1.4175121780164944e-19 -6.161216293047316e-25 1.4175121780164944e-19 5.67849762499435" Properties=species:S:1:pos:R:3:Z:I:1:forces:R:3 stress="0.04993566210366706 3.420362895678887e-26 2.0522177374073328e-25 3.420362895678887e-26 0.04993566210366703 -1.7038781621272753e-17 2.0522177374073328e-25 -1.7038781621272753e-17 0.04993566210366706" energy=-1304.85619883 Minim_Constant_Volume=T Minim_Hydrostatic_Strain=F pbc="T T T"
Si      -0.00000000      -0.00000000       0.00000000       14       0.00000000      -0.00000000      -0.00000000 
Si       1.41962441       1.41962441       1.41962441       14      -0.00000000       0.00000000       0.00000000 
Si       2.83924881       2.83924881       0.00000000       14       0.00000000       0.00000000       0.00000000 
Si       4.25887322       4.25887322       1.41962441       14      -0.00000000       0.00000000       0.00000000 
Si       2.83924881       0.00000000       2.83924881       14       0.00000000      -0.00000000      -0.00000000 
Si       4.25887322       1.41962441       4.25887322       14      -0.00000000       0.00000000       0.00000000 
Si      -0.00000000       2.83924881       2.83924881       14       0.00000000       0.00000000      -0.00000000 
Si       1.41962441       4.25887322       4.25887322       14      -0.00000000       0.00000000       0.00000000 
8
Lattice="5.720252783551539 -1.413082278699749e-26 -6.206520981049468e-25 -1.413082278699749e-26 5.720252783551539 1.4279354360080628e-19 -6.206520981049468e-25 1.4279354360080628e-19 5.720252783551539" Properties=species:S:1:pos:R:3:Z:I:1:forces:R:3 stress="0.05637398435279318 -1.4963293411423753e-44 -3.775050684792972e-43 -1.4963293411423753e-44 0.056373984352793186 5.873723607490825e-18 -3.775050684792972e-43 5.873723607490825e-18 0.0563739843527932" energy=-1304.63947233 Minim_Constant_Volume=T Minim_Hydrostatic_Strain=F pbc="T T T"
Si      -0.00000000      -0.00000000       0.00000000       14      -0.00000000       0.00000000      -0.00000000 
Si       1.43006320       1.43006320       1.43006320       14       0.00000000       0.00000000       0.00000000 
Si       2.86012639       2.86012639       0.00000000       14      -0.00000000      -0.00000000      -0.00000000 
Si       4.29018959       4.29018959       1.43006320       14      -0.00000000      -0.00000000      -0.00000000 
Si       2.86012639       0.00000000       2.86012639       14      -0.00000000       0.00000000      -0.00000000 
Si       4.29018959       1.43006320       4.29018959       14       0.00000000       0.00000000      -0.00000000 
Si      -0.00000000       2.86012639       2.86012639       14      -0.00000000      -0.00000000      -0.00000000 
Si       1.43006320       4.29018959       4.29018959       14      -0.00000000       0.00000000       0.00000000 
