2
Lattice="2.7380977424348205 0.0 0.0 -1.3690488712174096 2.3712622029933756 0.0 0.0 0.0 4.928575936382677" Properties=species:S:1:pos:R:3:Z:I:1:forces:R:3 energy=-325.161295932 stress="0.06114738186773101 -2.379550551964164e-17 2.6659056182821103e-51 -2.379550551964164e-17 0.061147381867731 8.788974054690512e-35 2.6659056182821103e-51 8.788974054690512e-35 0.06492063545924824" pbc="T T T"
Si       0.00000000       0.00000000       0.00000000       14       0.00000000      -0.00000000       0.00000000 
Si       0.00000000       1.58084147       2.46428797       14       0.00000000       0.00000000       0.00000000 
2
Lattice="2.6726146003586617 2.548276673705e-17 -2.8549362381731473e-51 -1.3363073001793302 2.3145521384357965 -8.151179507808436e-35 -5.1388852287116655e-51 -1.6941908458966178e-34 4.803432835924721" Properties=species:S:1:pos:R:3:Z:I:1:forces:R:3 energy=-325.236845591 stress="0.007503365400651515 -3.539632684944319e-18 7.888284073669591e-35 -3.539632684944319e-18 0.007503365400651505 4.130602072105823e-34 7.888284073669591e-35 4.130602072105823e-34 0.00858403249390311" pbc="T T T"
Si       0.00000000      -0.00000000       0.00000000       14       0.00000000       0.00000000       0.00000000 
Si       0.00000000       1.54303476       2.40171642       14       0.00000000       0.00000000      -0.00000000 
