2
Lattice="2.6726146003586617 2.548276673705e-17 -2.8549362381731473e-51 -1.3363073001793302 2.3145521384357965 -8.151179507808436e-35 -5.1388852287116655e-51 -1.6941908458966178e-34 4.803432835924721" Properties=species:S:1:pos:R:3:Z:I:1:forces:R:3 stress="0.007503365400651515 -3.539632684944319e-18 7.888284073669591e-35 -3.539632684944319e-18 0.007503365400651505 4.130602072105823e-34 7.888284073669591e-35 4.130602072105823e-34 0.00858403249390311" energy=-325.236845591 Minim_Constant_Volume=T Minim_Hydrostatic_Strain=F pbc="T T T"
Si       0.00000000      -0.00000000       0.00000000       14       0.00000000       0.00000000       0.00000000 
Si       0.00000000       1.54303476       2.40171642       14       0.00000000       0.00000000      -0.00000000 
2
Lattice="2.6575105496785447 2.2073469094191515e-17 7.835943056072776e-33 -1.3287552748392717 2.3014716468467675 3.9107245097663273e-32 1.4083372204479135e-32 8.928937587093267e-32 4.736624537011022" Properties=species:S:1:pos:R:3:Z:I:1:forces:R:3 stress="-0.003996778404778214 2.694899525742357e-18 2.515854401520235e-33 2.694899525742357e-18 -0.003996778404778208 1.63973919447306e-32 2.515854401520235e-33 1.63973919447306e-32 -0.00472758250033745" energy=-325.238063488 Minim_Constant_Volume=T Minim_Hydrostatic_Strain=F pbc="T T T"
Si       0.00000000      -0.00000000       0.00000000       14       0.00000000      -0.00000000       0.00000000 
Si      -0.00000000       1.53431443       2.36831227       14      -0.00000000       0.00000000      -0.00000000 
2
Lattice="2.642984498725911 4.431808727165604e-17 1.686241892049086e-32 -1.3214922493629548 2.288891717705119 5.513664294328205e-32 3.030298326171151e-32 1.3239993536551636e-31 4.6660093969564125" Properties=species:S:1:pos:R:3:Z:I:1:forces:R:3 stress="-0.015751040661154445 1.2670534009928315e-18 3.774210744799946e-35 1.2670534009928315e-18 -0.015751040661154448 -2.6667699174400292e-33 3.774210744799946e-35 -2.6667699174400292e-33 -0.016064290582767694" energy=-325.23054751 Minim_Constant_Volume=T Minim_Hydrostatic_Strain=F pbc="T T T"
Si       0.00000000      -0.00000000       0.00000000       14      -0.00000000      -0.00000000       0.00000000 
Si      -0.00000000       1.52592781       2.33300470       14      -0.00000000      -0.00000000      -0.00000000 
2
Lattice="2.6306538919455407 2.685544987313945e-17 4.838346379073816e-32 -1.3153269459727697 2.278213098989242 3.373069905790523e-32 8.632158196383975e-32 1.2250126823439489e-31 4.585804378870746" Properties=species:S:1:pos:R:3:Z:I:1:forces:R:3 stress="-0.02937856428259573 4.01215031119587e-18 6.13255060651533e-33 4.01215031119587e-18 -0.029378564282595696 1.594399074521463e-32 6.13255060651533e-33 1.594399074521463e-32 -0.030692193996679447" energy=-325.213686999 Minim_Constant_Volume=T Minim_Hydrostatic_Strain=F pbc="T T T"
Si       0.00000000      -0.00000000       0.00000000       14       0.00000000       0.00000000       0.00000000 
Si      -0.00000000       1.51880873       2.29290219       14       0.00000000       0.00000000       0.00000000 
2
Lattice="2.6067839065829657 2.661176932004962e-17 4.794444268803374e-32 -1.3033919532914822 2.2575410852772895 3.34246339783268e-32 8.553831856903896e-32 1.2138971817887264e-31 4.544193780177232" Properties=species:S:1:pos:R:3:Z:I:1:forces:R:3 stress="-0.049956158081757324 2.94992691296621e-17 7.992545814857704e-33 2.94992691296621e-17 -0.04995615808175729 2.517347291313597e-32 7.992545814857704e-33 2.517347291313597e-32 -0.047886330773241684" energy=-325.184610212 Minim_Constant_Volume=T Minim_Hydrostatic_Strain=F pbc="T T T"
Si       0.00000000      -0.00000000       0.00000000       14       0.00000000      -0.00000000      -0.00000000 
Si      -0.00000000       1.50502739       2.27209689       14      -0.00000000       0.00000000       0.00000000 
2
Lattice="2.5863608168274723 -5.501634143051886e-18 -1.8821194542460586e-34 -1.2931804084137355 2.239854170725262 -4.4173313753371913e-32 1.9962713491035002e-33 -8.277172434753772e-32 4.487982836855528" Properties=species:S:1:pos:R:3:Z:I:1:forces:R:3 stress="-0.0720978113436411 6.608747362796598e-18 5.479345408941962e-33 6.608747362796598e-18 -0.07209781134364113 1.0522045809396404e-32 5.479345408941962e-33 1.0522045809396404e-32 -0.07266513529676333" energy=-325.139778947 Minim_Constant_Volume=T Minim_Hydrostatic_Strain=F pbc="T T T"
Si       0.00000000      -0.00000000       0.00000000       14      -0.00000000       0.00000000      -0.00000000 
Si      -0.00000000       1.49323611       2.24399142       14       0.00000000      -0.00000000       0.00000000 
2
Lattice="2.694703326022208 2.5693377665961075e-17 -2.8785318225658466e-51 -1.3473516630111033 2.333681535997653 -8.218547682762707e-35 -5.181357280618524e-51 -1.708193058116696e-34 4.843132428279628" Properties=species:S:1:pos:R:3:Z:I:1:forces:R:3 stress="0.022175661659330055 -5.8845617685270995e-18 -4.7529324370838445e-34 -5.8845617685270995e-18 0.022175661659330024 -6.434055493770979e-34 -4.7529324370838445e-34 -6.434055493770979e-34 0.023305735513650908" energy=-325.225718966 Minim_Constant_Volume=T Minim_Hydrostatic_Strain=F pbc="T T T"
Si       0.00000000      -0.00000000       0.00000000       14       0.00000000       0.00000000      -0.00000000 
Si       0.00000000       1.55578769       2.42156621       14      -0.00000000      -0.00000000       0.00000000 
2
Lattice="2.7248507105827287 2.9243318787530365e-16 5.051440666758623e-32 -1.3624253552913634 2.359789936884723 -1.0091125842528395e-31 9.078845847874064e-32 -1.5700811797879402e-31 4.8519435534405755" Properties=species:S:1:pos:R:3:Z:I:1:forces:R:3 stress="0.040526587708513674 3.914968835971997e-18 -1.7206123473736518e-32 3.914968835971997e-18 0.04052658770851364 -4.033275284443859e-32 -1.7206123473736518e-32 -4.033275284443859e-32 0.03884976847217187" energy=-325.202640793 Minim_Constant_Volume=T Minim_Hydrostatic_Strain=F pbc="T T T"
Si       0.00000000      -0.00000000       0.00000000       14      -0.00000000       0.00000000      -0.00000000 
Si       0.00000000       1.57319329       2.42597178       14       0.00000000      -0.00000000       0.00000000 
2
Lattice="2.746333520865184 2.947387404954966e-16 5.091266386779022e-32 -1.373166760432591 2.3783945963340107 -1.0170684601901695e-31 9.150423759344973e-32 -1.5824597501009628e-31 4.890196431829445" Properties=species:S:1:pos:R:3:Z:I:1:forces:R:3 stress="0.06076901719913294 -4.2624321724645824e-17 -2.585050646494411e-32 -4.2624321724645824e-17 0.06076901719913288 -6.135746040751138e-32 -2.585050646494411e-32 -6.135746040751138e-32 0.060665657434140194" energy=-325.165298207 Minim_Constant_Volume=T Minim_Hydrostatic_Strain=F pbc="T T T"
Si       0.00000000      -0.00000000       0.00000000       14       0.00000000      -0.00000000       0.00000000 
Si       0.00000000       1.58559640       2.44509822       14      -0.00000000       0.00000000      -0.00000000 
2
Lattice="2.7674599935601734 2.9700605067684417e-16 5.130431513478317e-32 -1.3837299967800858 2.39669065838023 -1.0248923711936566e-31 9.220814400623853e-32 -1.5946329957928756e-31 4.927814805783397" Properties=species:S:1:pos:R:3:Z:I:1:forces:R:3 stress="0.08063078043714945 -1.692956104462631e-17 -3.177758961022058e-32 -1.692956104462631e-17 0.08063078043714937 -8.347073896205312e-32 -3.177758961022058e-32 -8.347073896205312e-32 0.08021943670519337" energy=-325.112662682 Minim_Constant_Volume=T Minim_Hydrostatic_Strain=F pbc="T T T"
Si       0.00000000      -0.00000000       0.00000000       14       0.00000000      -0.00000000       0.00000000 
Si       0.00000000       1.59779377       2.46390740       14      -0.00000000       0.00000000      -0.00000000 
2
Lattice="2.7663357699846105 1.0072732595639673e-15 8.325052961864708e-31 -1.3831678849923037 2.395717052204261 1.0850738529915446e-30 1.4810635649619544e-30 3.089141922819257e-30 5.042976343366163" Properties=species:S:1:pos:R:3:Z:I:1:forces:R:3 stress="0.09245642224228284 -7.279439518766036e-17 -2.6937189349017577e-31 -7.279439518766036e-17 0.0924564222422827 -7.420097356459526e-31 -2.6937189349017577e-31 -7.420097356459526e-31 0.09093207421854857" energy=-325.049021269 Minim_Constant_Volume=T Minim_Hydrostatic_Strain=F pbc="T T T"
Si       0.00000000       0.00000000       0.00000000       14       0.00000000      -0.00000000       0.00000000 
Si       0.00000000       1.59714470       2.52148817       14      -0.00000000       0.00000000      -0.00000000 
2
Lattice="2.7391306597883363 2.912201554440188e-15 7.155618855394748e-30 -1.369565329894165 2.3721567356615356 1.2782322077508213e-29 1.2929800460259633e-29 3.420403543623761e-29 5.25434941716427" Properties=species:S:1:pos:R:3:Z:I:1:forces:R:3 stress="0.08972715278628864 -2.4313510372037624e-16 -2.2738021758661925e-30 -2.4313510372037624e-16 0.08972715278628811 -6.454480308447434e-30 -2.2738021758661925e-30 -6.454480308447434e-30 0.08963406404046652" energy=-324.983389364 Minim_Constant_Volume=T Minim_Hydrostatic_Strain=F pbc="T T T"
Si       0.00000000       0.00000000       0.00000000       14       0.00000000      -0.00000000       0.00000000 
Si       0.00000000       1.58143782       2.62717471       14      -0.00000000       0.00000000       0.00000000 
