40
Lattice="4.495185620847397 9.416397434504722e-12 -1.0842421409405081e-11 9.416397434351217e-12 4.495185620459693 -3.999989644366174e-11 -7.666749703058817e-11 -2.828419802701363e-10 41.78576235273952" Properties=species:S:1:pos:R:3:Z:I:1 energy=-437.538989417 pbc="T T T"
W       0.00000000       0.00000000      -0.00000000       74 
W      -0.00000000       2.24759281       1.58928812       74 
W       2.24759281       2.24759281       0.00000000       74 
W       2.24759281       0.00000000       1.58928812       74 
W       0.00000000       0.00000000       3.17857623       74 
W      -0.00000000       2.24759281       4.76786435       74 
W       2.24759281       2.24759281       3.17857624       74 
W       2.24759281       0.00000000       4.76786435       74 
W      -0.00000000       0.00000000       6.35715247       74 
W      -0.00000000       2.24759281       7.94644059       74 
W       2.24759281       2.24759281       6.35715247       74 
W       2.24759281       0.00000000       7.94644059       74 
W      -0.00000000       0.00000000       9.53572871       74 
W      -0.00000000       2.24759281      11.12501682       74 
W       2.24759281       2.24759281       9.53572871       74 
W       2.24759281       0.00000000      11.12501682       74 
W      -0.00000000       0.00000000      12.71430494       74 
W      -0.00000000       2.24759281      14.30359306       74 
W       2.24759281       2.24759281      12.71430494       74 
W       2.24759281       0.00000000      14.30359306       74 
W      -0.00000000       0.00000000      15.89288118       74 
W      -0.00000000       2.24759281      17.48216929       74 
W       2.24759281       2.24759281      15.89288118       74 
W       2.24759281       0.00000000      17.48216929       74 
W      -0.00000000       0.00000000      19.07145741       74 
W      -0.00000000       2.24759281      20.66074553       74 
W       2.24759281       2.24759281      19.07145741       74 
W       2.24759281       0.00000000      20.66074553       74 
W      -0.00000000       0.00000000      22.25003365       74 
W      -0.00000000       2.24759281      23.83932176       74 
W       2.24759281       2.24759281      22.25003365       74 
W       2.24759281       0.00000000      23.83932176       74 
W      -0.00000000       0.00000000      25.42860988       74 
W      -0.00000000       2.24759281      27.01789800       74 
W       2.24759281       2.24759281      25.42860988       74 
W       2.24759281       0.00000000      27.01789800       74 
W      -0.00000000       0.00000000      28.60718612       74 
W      -0.00000000       2.24759281      30.19647423       74 
W       2.24759281       2.24759281      28.60718612       74 
W       2.24759281       0.00000000      30.19647424       74 
40
Lattice="4.495185620847397 9.416397434504722e-12 -1.0842421409405081e-11 9.416397434351217e-12 4.495185620459693 -3.999989644366174e-11 -7.666749703058817e-11 -2.828419802701363e-10 41.78576235273952" Properties=species:S:1:pos:R:3:Z:I:1:forces:R:3 pbc="T T T"
W      -0.00000000       0.00000000       0.05882503       74      -0.00000000      -0.00000001       0.56563920 
W      -0.00000000       2.24759281       1.53548648       74       0.00000001       0.00000003      -0.27663874 
W       2.24759281       2.24759281       0.05882503       74      -0.00000001       0.00000001       0.56563921 
W       2.24759281       0.00000000       1.53548648       74      -0.00000000      -0.00000002      -0.27663874 
W       0.00000000       0.00000000       3.16997483       74      -0.00000000      -0.00000002      -0.03727201 
W       0.00000000       2.24759281       4.77176725       74      -0.00000001      -0.00000000      -0.24625005 
W       2.24759281       2.24759281       3.16997483       74       0.00000001       0.00000001      -0.03727202 
W       2.24759281      -0.00000000       4.77176725       74       0.00000001      -0.00000000      -0.24625007 
W       0.00000000      -0.00000000       6.35715247       74      -0.00000002       0.00000001      -0.02170142 
W       0.00000000       2.24759281       7.94644059       74       0.00000001      -0.00000002       0.02368611 
W       2.24759281       2.24759281       6.35715247       74       0.00000000       0.00000001      -0.02170143 
W       2.24759281      -0.00000000       7.94644059       74      -0.00000000      -0.00000001       0.02368614 
W       0.00000000      -0.00000000       9.53572871       74       0.00000002       0.00000002       0.00010458 
W       0.00000000       2.24759281      11.12501682       74      -0.00000000      -0.00000001      -0.00028954 
W       2.24759281       2.24759281       9.53572871       74      -0.00000001      -0.00000002       0.00010456 
W       2.24759281      -0.00000000      11.12501682       74       0.00000000       0.00000001      -0.00028956 
W       0.00000000       0.00000000      12.71430494       74      -0.00000001      -0.00000002      -0.00000001 
W       0.00000000       2.24759281      14.30359306       74      -0.00000001       0.00000001      -0.00000001 
W       2.24759281       2.24759281      12.71430494       74       0.00000001       0.00000000       0.00000000 
W       2.24759281      -0.00000000      14.30359306       74       0.00000002       0.00000001       0.00000001 
W       0.00000000      -0.00000000      15.89288118       74      -0.00000001      -0.00000000      -0.00000001 
W       0.00000000       2.24759281      17.48216929       74      -0.00000001      -0.00000002       0.00000001 
W       2.24759281       2.24759281      15.89288118       74       0.00000000       0.00000001      -0.00000001 
W       2.24759281      -0.00000000      17.48216929       74       0.00000001       0.00000001       0.00000000 
W      -0.00000000      -0.00000000      19.07145741       74      -0.00000001       0.00000001       0.00028958 
W       0.00000000       2.24759281      20.66074553       74      -0.00000002      -0.00000001      -0.00010457 
W       2.24759281       2.24759281      19.07145741       74       0.00000001      -0.00000001       0.00028955 
W       2.24759281      -0.00000000      20.66074553       74       0.00000001       0.00000000      -0.00010457 
W       0.00000000      -0.00000000      22.25003365       74      -0.00000001       0.00000003      -0.02368613 
W      -0.00000000       2.24759281      23.83932176       74      -0.00000000      -0.00000002       0.02170143 
W       2.24759281       2.24759281      22.25003365       74       0.00000001      -0.00000001      -0.02368613 
W       2.24759281      -0.00000000      23.83932176       74       0.00000001       0.00000001       0.02170140 
W       0.00000000      -0.00000000      25.42470698       74      -0.00000001       0.00000001       0.24625009 
W       0.00000000       2.24759281      27.02649940       74      -0.00000001      -0.00000001       0.03727201 
W       2.24759281       2.24759281      25.42470698       74       0.00000001      -0.00000000       0.24625006 
W       2.24759281      -0.00000000      27.02649940       74       0.00000000       0.00000001       0.03727203 
W       0.00000000       0.00000000      28.66098775       74       0.00000000      -0.00000000       0.27663872 
W      -0.00000000       2.24759281      30.13764920       74       0.00000001      -0.00000000      -0.56563920 
W       2.24759281       2.24759281      28.66098775       74      -0.00000001      -0.00000000       0.27663873 
W       2.24759281       0.00000000      30.13764920       74      -0.00000000       0.00000001      -0.56563921 
40
Lattice="4.495185620847397 9.416397434504722e-12 -1.0842421409405081e-11 9.416397434351217e-12 4.495185620459693 -3.999989644366174e-11 -7.666749703058817e-11 -2.828419802701363e-10 41.78576235273952" Properties=species:S:1:pos:R:3:Z:I:1:forces:R:3 pbc="T T T"
W      -0.00000000       0.00000000       0.09190927       74       0.00000001       0.00000000       0.08868828 
W       0.00000000       2.24759281       1.51035320       74      -0.00000000       0.00000000       0.22194352 
W       2.24759281       2.24759281       0.09190927       74       0.00000000      -0.00000002       0.08868824 
W       2.24759281       0.00000000       1.51035320       74      -0.00000000       0.00000001       0.22194352 
W       0.00000000      -0.00000000       3.16610482       74      -0.00000001      -0.00000002       0.04936639 
W       0.00000000       2.24759281       4.76791918       74      -0.00000001       0.00000000      -0.29930816 
W       2.24759281       2.24759281       3.16610482       74       0.00000000       0.00000002       0.04936640 
W       2.24759281      -0.00000000       4.76791918       74       0.00000000       0.00000000      -0.29930817 
W       0.00000000      -0.00000000       6.35669033       74       0.00000000       0.00000000      -0.05521359 
W       0.00000000       2.24759281       7.94694499       74      -0.00000000      -0.00000000      -0.00209698 
W       2.24759281       2.24759281       6.35669033       74       0.00000001      -0.00000002      -0.05521360 
W       2.24759281      -0.00000000       7.94694499       74       0.00000001       0.00000001      -0.00209697 
W       0.00000000      -0.00000000       9.53573093       74      -0.00000002       0.00000001       0.00158489 
W       0.00000000       2.24759281      11.12501066       74       0.00000001       0.00000000       0.00243555 
W       2.24759281       2.24759281       9.53573093       74      -0.00000000      -0.00000002       0.00158488 
W       2.24759281       0.00000000      11.12501066       74       0.00000001      -0.00000000       0.00243555 
W      -0.00000000      -0.00000000      12.71430494       74      -0.00000000       0.00000001      -0.00005737 
W      -0.00000000       2.24759281      14.30359306       74       0.00000000      -0.00000001      -0.00006667 
W       2.24759281       2.24759281      12.71430494       74      -0.00000001       0.00000002      -0.00005737 
W       2.24759281      -0.00000000      14.30359306       74       0.00000000      -0.00000000      -0.00006666 
W       0.00000000      -0.00000000      15.89288118       74      -0.00000002       0.00000001       0.00006666 
W      -0.00000000       2.24759281      17.48216929       74      -0.00000000      -0.00000001       0.00005737 
W       2.24759281       2.24759281      15.89288118       74       0.00000002      -0.00000002       0.00006667 
W       2.24759281      -0.00000000      17.48216929       74       0.00000001       0.00000001       0.00005736 
W      -0.00000000      -0.00000000      19.07146358       74      -0.00000000       0.00000001      -0.00243552 
W      -0.00000000       2.24759281      20.66074330       74       0.00000000      -0.00000002      -0.00158489 
W       2.24759281       2.24759281      19.07146358       74       0.00000000      -0.00000000      -0.00243554 
W       2.24759281      -0.00000000      20.66074330       74       0.00000001       0.00000001      -0.00158488 
W      -0.00000000      -0.00000000      22.24952925       74      -0.00000000       0.00000001       0.00209696 
W      -0.00000000       2.24759281      23.83978390       74      -0.00000000      -0.00000002       0.05521360 
W       2.24759281       2.24759281      22.24952925       74      -0.00000001       0.00000001       0.00209697 
W       2.24759281       0.00000000      23.83978390       74       0.00000000      -0.00000002       0.05521361 
W       0.00000000      -0.00000000      25.42855506       74      -0.00000002       0.00000000       0.29930817 
W       0.00000000       2.24759281      27.03036941       74       0.00000000       0.00000001      -0.04936640 
W       2.24759281       2.24759281      25.42855506       74       0.00000001       0.00000001       0.29930816 
W       2.24759281      -0.00000000      27.03036941       74       0.00000001       0.00000000      -0.04936640 
W       0.00000000       0.00000000      28.68612103       74      -0.00000002      -0.00000001      -0.22194352 
W       0.00000000       2.24759281      30.10456497       74       0.00000000      -0.00000001      -0.08868828 
W       2.24759281       2.24759281      28.68612103       74       0.00000001      -0.00000001      -0.22194352 
W       2.24759281       0.00000000      30.10456497       74       0.00000000       0.00000002      -0.08868826 
40
Lattice="4.495185620847397 9.416397434504722e-12 -1.0842421409405081e-11 9.416397434351217e-12 4.495185620459693 -3.999989644366174e-11 -7.666749703058817e-11 -2.828419802701363e-10 41.78576235273952" Properties=species:S:1:pos:R:3:Z:I:1:forces:R:3 pbc="T T T"
W       0.00000000       0.00000000       0.09534573       74       0.00000001       0.00000001       0.17550898 
W      -0.00000000       2.24759281       1.52524143       74       0.00000002      -0.00000002      -0.00548507 
W       2.24759281       2.24759281       0.09534573       74      -0.00000002       0.00000001       0.17550899 
W       2.24759281       0.00000000       1.52524143       74      -0.00000001      -0.00000002      -0.00548508 
W      -0.00000000      -0.00000000       3.16930241       74       0.00000000       0.00000003      -0.03455153 
W      -0.00000000       2.24759281       4.74990074       74      -0.00000001      -0.00000001       0.04299743 
W       2.24759281       2.24759281       3.16930241       74      -0.00000001      -0.00000001      -0.03455155 
W       2.24759281      -0.00000000       4.74990074       74      -0.00000000       0.00000000       0.04299745 
W       0.00000000       0.00000000       6.35345248       74       0.00000001      -0.00000001      -0.07054158 
W       0.00000000       2.24759281       7.94687427       74      -0.00000002       0.00000000      -0.09124417 
W       2.24759281       2.24759281       6.35345248       74       0.00000002       0.00000002      -0.07054158 
W       2.24759281       0.00000000       7.94687427       74      -0.00000001      -0.00000001      -0.09124419 
W      -0.00000000       0.00000000       9.53582277       74       0.00000000      -0.00000000      -0.01312197 
W       0.00000000       2.24759281      11.12515083       74      -0.00000002      -0.00000002       0.00178518 
W       2.24759281       2.24759281       9.53582277       74       0.00000002       0.00000002      -0.01312196 
W       2.24759281      -0.00000000      11.12515083       74      -0.00000001      -0.00000001       0.00178518 
W      -0.00000000      -0.00000000      12.71430162       74       0.00000001       0.00000001       0.00143557 
W      -0.00000000       2.24759281      14.30358920       74       0.00000001      -0.00000001       0.00066836 
W       2.24759281       2.24759281      12.71430162       74       0.00000000       0.00000000       0.00143559 
W       2.24759281      -0.00000000      14.30358921       74      -0.00000001      -0.00000001       0.00066833 
W      -0.00000000      -0.00000000      15.89288503       74       0.00000003      -0.00000000      -0.00066833 
W      -0.00000000       2.24759281      17.48217261       74       0.00000002       0.00000001      -0.00143557 
W       2.24759281       2.24759281      15.89288503       74      -0.00000004       0.00000003      -0.00066834 
W       2.24759281       0.00000000      17.48217261       74      -0.00000002      -0.00000002      -0.00143556 
W      -0.00000000      -0.00000000      19.07132341       74       0.00000002      -0.00000002      -0.00178522 
W      -0.00000000       2.24759281      20.66065147       74       0.00000000       0.00000003       0.01312198 
W       2.24759281       2.24759281      19.07132341       74      -0.00000001       0.00000001      -0.00178520 
W       2.24759281       0.00000000      20.66065147       74      -0.00000001      -0.00000002       0.01312197 
W      -0.00000000       0.00000000      22.24959997       74      -0.00000000      -0.00000002       0.09124420 
W      -0.00000000       2.24759281      23.84302176       74      -0.00000000       0.00000001       0.07054157 
W       2.24759281       2.24759281      22.24959997       74       0.00000001      -0.00000001       0.09124419 
W       2.24759281      -0.00000000      23.84302176       74       0.00000000       0.00000002       0.07054157 
W      -0.00000000      -0.00000000      25.44657350       74      -0.00000000       0.00000000      -0.04299745 
W       0.00000000       2.24759281      27.02717183       74       0.00000001      -0.00000001       0.03455155 
W       2.24759281       2.24759281      25.44657350       74      -0.00000000      -0.00000001      -0.04299745 
W       2.24759281      -0.00000000      27.02717183       74       0.00000000       0.00000000       0.03455154 
W      -0.00000000      -0.00000000      28.67123280       74      -0.00000000       0.00000001       0.00548507 
W       0.00000000       2.24759281      30.10112850       74       0.00000001      -0.00000002      -0.17550898 
W       2.24759281       2.24759281      28.67123280       74      -0.00000001      -0.00000001       0.00548508 
W       2.24759281       0.00000000      30.10112851       74       0.00000001       0.00000002      -0.17550899 
40
Lattice="4.495185620847397 9.416397434504722e-12 -1.0842421409405081e-11 9.416397434351217e-12 4.495185620459693 -3.999989644366174e-11 -7.666749703058817e-11 -2.828419802701363e-10 41.78576235273952" Properties=species:S:1:pos:R:3:Z:I:1:forces:R:3 pbc="T T T"
W       0.00000000       0.00000000       0.10399702       74      -0.00000001       0.00000001       0.08156842 
W       0.00000000       2.24759281       1.52375983       74      -0.00000000      -0.00000000       0.05374022 
W       2.24759281       2.24759281       0.10399702       74      -0.00000001       0.00000000       0.08156842 
W       2.24759281       0.00000000       1.52375983       74       0.00000002      -0.00000002       0.05374022 
W      -0.00000000      -0.00000000       3.16877763       74       0.00000001       0.00000003      -0.01597795 
W      -0.00000000       2.24759281       4.74655901       74      -0.00000000      -0.00000001       0.06932837 
W       2.24759281       2.24759281       3.16877763       74      -0.00000001      -0.00000001      -0.01597796 
W       2.24759281      -0.00000000       4.74655901       74       0.00000000       0.00000000       0.06932837 
W       0.00000000       0.00000000       6.35172831       74      -0.00000000      -0.00000001      -0.06443534 
W      -0.00000000       2.24759281       7.94560895       74      -0.00000000       0.00000001      -0.08984106 
W       2.24759281       2.24759281       6.35172831       74       0.00000000       0.00000001      -0.06443535 
W       2.24759281       0.00000000       7.94560895       74      -0.00000001      -0.00000002      -0.08984108 
W      -0.00000000       0.00000000       9.53565783       74       0.00000001      -0.00000002      -0.02389553 
W       0.00000000       2.24759281      11.12520575       74      -0.00000002       0.00000000      -0.00514433 
W       2.24759281       2.24759281       9.53565783       74       0.00000002       0.00000002      -0.02389552 
W       2.24759281      -0.00000000      11.12520575       74      -0.00000001       0.00000000      -0.00514434 
W      -0.00000000       0.00000000      12.71432114       74       0.00000002       0.00000000       0.00094273 
W      -0.00000000       2.24759281      14.30359779       74      -0.00000000       0.00000000       0.00083341 
W       2.24759281       2.24759281      12.71432114       74       0.00000001      -0.00000001       0.00094274 
W       2.24759281      -0.00000000      14.30359779       74       0.00000000       0.00000000       0.00083340 
W      -0.00000000      -0.00000000      15.89287644       74       0.00000001       0.00000001      -0.00083339 
W       0.00000000       2.24759281      17.48215310       74      -0.00000000      -0.00000001      -0.00094273 
W       2.24759281       2.24759281      15.89287644       74      -0.00000001       0.00000002      -0.00083341 
W       2.24759281       0.00000000      17.48215310       74       0.00000000      -0.00000001      -0.00094272 
W      -0.00000000      -0.00000000      19.07126849       74       0.00000001       0.00000000       0.00514431 
W      -0.00000000       2.24759281      20.66081641       74      -0.00000000       0.00000003       0.02389553 
W       2.24759281       2.24759281      19.07126849       74      -0.00000001       0.00000000       0.00514431 
W       2.24759281       0.00000000      20.66081641       74      -0.00000001      -0.00000002       0.02389551 
W      -0.00000000       0.00000000      22.25086528       74       0.00000001      -0.00000001       0.08984109 
W      -0.00000000       2.24759281      23.84474593       74       0.00000000       0.00000001       0.06443534 
W       2.24759281       2.24759281      22.25086529       74       0.00000001      -0.00000002       0.08984110 
W       2.24759281      -0.00000000      23.84474593       74      -0.00000001       0.00000002       0.06443535 
W      -0.00000000      -0.00000000      25.44991523       74       0.00000002       0.00000000      -0.06932838 
W       0.00000000       2.24759281      27.02769660       74       0.00000001       0.00000000       0.01597795 
W       2.24759281       2.24759281      25.44991523       74      -0.00000002      -0.00000002      -0.06932836 
W       2.24759281       0.00000000      27.02769660       74      -0.00000001      -0.00000000       0.01597796 
W      -0.00000000      -0.00000000      28.67271440       74       0.00000001       0.00000001      -0.05374021 
W       0.00000000       2.24759281      30.09247722       74      -0.00000001      -0.00000002      -0.08156842 
W       2.24759281       2.24759281      28.67271440       74       0.00000001       0.00000000      -0.05374023 
W       2.24759281       0.00000000      30.09247722       74      -0.00000002       0.00000002      -0.08156843 
40
Lattice="4.495185620847397 9.416397434504722e-12 -1.0842421409405081e-11 9.416397434351217e-12 4.495185620459693 -3.999989644366174e-11 -7.666749703058817e-11 -2.828419802701363e-10 41.78576235273952" Properties=species:S:1:pos:R:3:Z:I:1:forces:R:3 pbc="T T T"
W       0.00000000       0.00000000       0.11075930       74       0.00000001       0.00000000       0.02051499 
W       0.00000000       2.24759281       1.52488485       74      -0.00000001      -0.00000000       0.07184944 
W       2.24759281       2.24759281       0.11075930       74      -0.00000000      -0.00000000       0.02051498 
W       2.24759281       0.00000000       1.52488485       74      -0.00000001      -0.00000000       0.07184946 
W      -0.00000000      -0.00000000       3.16840544       74       0.00000001       0.00000002       0.00818285 
W      -0.00000000       2.24759281       4.74487555       74       0.00000002      -0.00000001       0.07152004 
W       2.24759281       2.24759281       3.16840544       74      -0.00000002      -0.00000002       0.00818285 
W       2.24759281      -0.00000000       4.74487555       74      -0.00000000       0.00000001       0.07152004 
W       0.00000000      -0.00000000       6.34929322       74       0.00000001      -0.00000000      -0.04290287 
W      -0.00000000       2.24759281       7.94314262       74       0.00000001      -0.00000000      -0.06741123 
W       2.24759281       2.24759281       6.34929322       74      -0.00000002       0.00000000      -0.04290285 
W       2.24759281       0.00000000       7.94314262       74      -0.00000001      -0.00000000      -0.06741122 
W      -0.00000000      -0.00000000       9.53506445       74      -0.00000000       0.00000000      -0.03644007 
W       0.00000000       2.24759281      11.12512030       74       0.00000000      -0.00000000      -0.01696199 
W       2.24759281       2.24759281       9.53506445       74      -0.00000001      -0.00000000      -0.03644007 
W       2.24759281      -0.00000000      11.12512030       74       0.00000003       0.00000001      -0.01696200 
W      -0.00000000       0.00000000      12.71434853       74      -0.00000001      -0.00000001      -0.00216748 
W      -0.00000000       2.24759281      14.30361927       74       0.00000001       0.00000001       0.00016352 
W       2.24759281       2.24759281      12.71434853       74      -0.00000001      -0.00000002      -0.00216749 
W       2.24759281      -0.00000000      14.30361927       74      -0.00000001       0.00000001       0.00016352 
W      -0.00000000       0.00000000      15.89285497       74       0.00000001      -0.00000001      -0.00016352 
W       0.00000000       2.24759281      17.48212570       74      -0.00000001       0.00000000       0.00216749 
W       2.24759281       2.24759281      15.89285497       74      -0.00000001       0.00000000      -0.00016351 
W       2.24759281      -0.00000000      17.48212570       74      -0.00000001       0.00000001       0.00216748 
W      -0.00000000      -0.00000000      19.07135393       74       0.00000001       0.00000001       0.01696198 
W      -0.00000000       2.24759281      20.66140978       74      -0.00000000       0.00000000       0.03644008 
W       2.24759281       2.24759281      19.07135393       74       0.00000000      -0.00000001       0.01696199 
W       2.24759281       0.00000000      20.66140978       74      -0.00000000       0.00000000       0.03644009 
W      -0.00000000       0.00000000      22.25333161       74      -0.00000001      -0.00000001       0.06741122 
W      -0.00000000       2.24759281      23.84718102       74       0.00000001       0.00000001       0.04290286 
W       2.24759281       2.24759281      22.25333161       74       0.00000000      -0.00000001       0.06741122 
W       2.24759281      -0.00000000      23.84718102       74       0.00000001       0.00000001       0.04290287 
W      -0.00000000      -0.00000000      25.45159868       74       0.00000001       0.00000001      -0.07152006 
W       0.00000000       2.24759281      27.02806879       74       0.00000000      -0.00000001      -0.00818286 
W       2.24759281       2.24759281      25.45159868       74      -0.00000000      -0.00000000      -0.07152004 
W       2.24759281       0.00000000      27.02806879       74      -0.00000002       0.00000000      -0.00818287 
W      -0.00000000      -0.00000000      28.67158938       74       0.00000002      -0.00000001      -0.07184943 
W       0.00000000       2.24759281      30.08571493       74      -0.00000000      -0.00000002      -0.02051497 
W       2.24759281       2.24759281      28.67158938       74      -0.00000000       0.00000001      -0.07184945 
W       2.24759281       0.00000000      30.08571493       74      -0.00000001       0.00000002      -0.02051497 
40
Lattice="4.495185620847397 9.416397434504722e-12 -1.0842421409405081e-11 9.416397434351217e-12 4.495185620459693 -3.999989644366174e-11 -7.666749703058817e-11 -2.828419802701363e-10 41.78576235273952" Properties=species:S:1:pos:R:3:Z:I:1:forces:R:3 pbc="T T T"
W       0.00000000       0.00000000       0.11614820       74      -0.00000001       0.00000002      -0.01490860 
W       0.00000000       2.24759281       1.52824149       74      -0.00000000      -0.00000002       0.05723615 
W       2.24759281       2.24759281       0.11614820       74      -0.00000001      -0.00000000      -0.01490858 
W       2.24759281      -0.00000000       1.52824149       74       0.00000002      -0.00000000       0.05723615 
W      -0.00000000       0.00000000       3.16842851       74      -0.00000000       0.00000001       0.03450774 
W      -0.00000000       2.24759281       4.74479389       74       0.00000000       0.00000001       0.05143997 
W       2.24759281       2.24759281       3.16842851       74       0.00000000      -0.00000001       0.03450773 
W       2.24759281      -0.00000000       4.74479389       74      -0.00000000      -0.00000000       0.05144000 
W       0.00000000      -0.00000000       6.34629602       74      -0.00000000       0.00000002      -0.00726266 
W      -0.00000000       2.24759281       7.93961030       74       0.00000001      -0.00000002      -0.02833201 
W       2.24759281       2.24759281       6.34629602       74      -0.00000001      -0.00000001      -0.00726264 
W       2.24759281      -0.00000000       7.93961030       74      -0.00000001      -0.00000000      -0.02833201 
W      -0.00000000      -0.00000000       9.53376376       74       0.00000002       0.00000001      -0.04499685 
W      -0.00000000       2.24759281      11.12466774       74       0.00000003      -0.00000001      -0.03060123 
W       2.24759281       2.24759281       9.53376376       74      -0.00000001       0.00000001      -0.04499686 
W       2.24759281      -0.00000000      11.12466774       74      -0.00000002      -0.00000000      -0.03060124 
W      -0.00000000       0.00000000      12.71431621       74       0.00000001       0.00000002      -0.00915744 
W       0.00000000       2.24759281      14.30363822       74       0.00000000      -0.00000000      -0.00205897 
W       2.24759281       2.24759281      12.71431621       74      -0.00000001      -0.00000000      -0.00915742 
W       2.24759281      -0.00000000      14.30363823       74      -0.00000000      -0.00000001      -0.00205897 
W      -0.00000000      -0.00000000      15.89283601       74       0.00000001       0.00000000       0.00205897 
W       0.00000000       2.24759281      17.48215803       74       0.00000000      -0.00000000       0.00915745 
W       2.24759281       2.24759281      15.89283601       74      -0.00000000       0.00000000       0.00205897 
W       2.24759281      -0.00000000      17.48215803       74      -0.00000001       0.00000000       0.00915744 