1
Lattice="2.6585018343913718 7.689524571267075e-17 2.783509877239384e-28 1.3292509171956859 2.3023301245904584 -1.7475893488423816e-32 2.974073565997825e-28 -1.7172945085537768e-28 2.4756996626876164" Properties=species:S:1:pos:R:3:Z:I:1:forces:R:3 stress="-1.9308596611140972e-05 1.165500145629575e-20 1.0228080625049008e-29 1.165500145629575e-20 -1.9308596611140986e-05 4.133511840737483e-29 1.0228080625049008e-29 4.133511840737483e-29 2.032850420660686e-05" energy=-162.834965067 Minim_Constant_Volume=T Minim_Hydrostatic_Strain=F pbc="T T T"
Si       0.00000000       0.00000000       0.00000000       14       0.00000000       0.00000000       0.00000000 
1
Lattice="2.635229795367202 7.377448419120344e-17 2.121631075320177e-28 1.317614897683601 2.2821759475976644 -2.917679079963621e-29 2.351640648691006e-28 -1.671482915000273e-28 2.456627759717753" Properties=species:S:1:pos:R:3:Z:I:1:forces:R:3 stress="-0.018798248849147096 5.695903279744519e-18 3.039022651076955e-30 5.695903279744519e-18 -0.018798248849147093 -1.602507213539175e-30 3.039022651076955e-30 -1.602507213539175e-30 -0.018797720624321803" energy=-162.831427885 Minim_Constant_Volume=T Minim_Hydrostatic_Strain=F pbc="T T T"
Si       0.00000000       0.00000000       0.00000000       14       0.00000000       0.00000000       0.00000000 
1
Lattice="2.610563790971595 8.89867415356508e-17 3.09909713128711e-28 1.3052818954857974 2.26081456118121 -2.5891120527347163e-28 3.254974894035588e-28 -4.665285109748438e-28 2.439080576209764" Properties=species:S:1:pos:R:3:Z:I:1:forces:R:3 stress="-0.0373595386569372 -4.159605346739162e-18 -2.132670475508852e-29 -4.159605346739162e-18 -0.03735953865693719 -5.950790795523987e-29 -2.132670475508852e-29 -5.950790795523987e-29 -0.03735727313915652" energy=-162.820815573 Minim_Constant_Volume=T Minim_Hydrostatic_Strain=F pbc="T T T"
Si       0.00000000       0.00000000       0.00000000       14       0.00000000       0.00000000       0.00000000 
1
Lattice="2.585128779546655 9.275481210635522e-17 2.9750384994526207e-28 1.2925643897733274 2.2387871951416645 -2.88929767619975e-28 3.1278006095075414e-28 -4.908298392599279e-28 2.42185532051649" Properties=species:S:1:pos:R:3:Z:I:1:forces:R:3 stress="-0.05777276244183636 -1.0153128607253339e-17 6.644540518012555e-30 -1.0153128607253339e-17 -0.05777276244183641 -5.110595077921741e-29 6.644540518012555e-30 -5.110595077921741e-29 -0.05782955150531706" energy=-162.802877786 Minim_Constant_Volume=T Minim_Hydrostatic_Strain=F pbc="T T T"
Si       0.00000000       0.00000000       0.00000000       14       0.00000000       0.00000000       0.00000000 
1
Lattice="2.5598595483076845 8.344014628926584e-17 2.834084655016308e-28 1.2799297741538422 2.216903398954613 -3.4582488487265516e-28 2.986698124958209e-28 -5.436117679176328e-28 2.403153431010659" Properties=species:S:1:pos:R:3:Z:I:1:forces:R:3 stress="-0.0839281455843757 3.264836441767418e-17 1.1658160263916038e-30 3.264836441767418e-17 -0.0839281455843758 2.8762460859562353e-29 1.1658160263916038e-30 2.8762460859562353e-29 -0.08392940259631969" energy=-162.776216474 Minim_Constant_Volume=T Minim_Hydrostatic_Strain=F pbc="T T T"
Si       0.00000000       0.00000000       0.00000000       14       0.00000000       0.00000000       0.00000000 
1
Lattice="2.5342005888738206 -1.1581617169727571e-17 2.7238779185393573e-28 1.2671002944369103 2.1946820882502123 -3.4886704608383886e-28 2.87455977905321e-28 -5.39710151413704e-28 2.3839511650085097" Properties=species:S:1:pos:R:3:Z:I:1:forces:R:3 stress="-0.114605249837526 1.3117875897818053e-17 -3.658007738857113e-29 1.3117875897818053e-17 -0.11460524983752605 2.6844860696813333e-29 -3.658007738857113e-29 2.6844860696813333e-29 -0.11460797283220482" energy=-162.738774603 Minim_Constant_Volume=T Minim_Hydrostatic_Strain=F pbc="T T T"
Si       0.00000000       0.00000000       0.00000000       14       0.00000000       0.00000000       0.00000000 
1
Lattice="2.6801534110614673 6.556179256457486e-17 2.8825980288691785e-28 1.3400767055307337 2.3210809400187475 9.606787528310325e-30 3.068521567877445e-28 -1.6683343436319813e-28 2.4967578596175626" Properties=species:S:1:pos:R:3:Z:I:1:forces:R:3 stress="0.018014530496026422 -1.1969615077530387e-17 -4.19220662056156e-30 -1.1969615077530387e-17 0.01801453049602643 2.364792839130853e-30 -4.19220662056156e-30 2.364792839130853e-30 0.018016405900979457" energy=-162.831507308 Minim_Constant_Volume=T Minim_Hydrostatic_Strain=F pbc="T T T"
Si       0.00000000       0.00000000       0.00000000       14       0.00000000       0.00000000       0.00000000 
1
Lattice="2.701372662883545 6.714325680497068e-17 3.056670288845569e-28 1.3506863314417725 2.339457351145966 4.841930576511669e-29 3.232526295283625e-28 -1.345567369829913e-28 2.517631455213352" Properties=species:S:1:pos:R:3:Z:I:1:forces:R:3 stress="0.033157694695813374 4.5273612450261106e-18 -1.4212025787643817e-29 4.5273612450261106e-18 0.033157694695813374 3.115456949399512e-29 -1.4212025787643817e-29 3.115456949399512e-29 0.0331718850570322" energy=-162.82171181 Minim_Constant_Volume=T Minim_Hydrostatic_Strain=F pbc="T T T"
Si       0.00000000       0.00000000       0.00000000       14       0.00000000       0.00000000       0.00000000 
1
Lattice="2.7225338059735837 7.798141162124558e-17 3.31492737835733e-28 1.3612669029867919 2.3577834386350567 1.4658719508322862e-28 3.4758741277306145e-28 -4.296868640522072e-29 2.5376620557143723" Properties=species:S:1:pos:R:3:Z:I:1:forces:R:3 stress="0.04464900994148025 3.207234639865005e-17 -2.4011640007114203e-29 3.207234639865005e-17 0.04464900994148027 3.333960837552407e-30 -2.4011640007114203e-29 3.333960837552407e-30 0.04464999508719766" energy=-162.806911741 Minim_Constant_Volume=T Minim_Hydrostatic_Strain=F pbc="T T T"
Si       0.00000000       0.00000000       0.00000000       14       0.00000000       0.00000000       0.00000000 
1
Lattice="2.742535219918968 1.0800604597259985e-16 3.308442918582927e-28 1.371267609959484 2.375105171223368 1.464474801802476e-28 3.46945892157629e-28 -4.291287881104935e-29 2.558939337930997" Properties=species:S:1:pos:R:3:Z:I:1:forces:R:3 stress="0.05498677293707225 8.34414110304154e-18 -7.847467781378794e-30 8.34414110304154e-18 0.05498677293707233 2.211039809511186e-29 -7.847467781378794e-30 2.211039809511186e-29 0.05498698036905888" energy=-162.78801794 Minim_Constant_Volume=T Minim_Hydrostatic_Strain=F pbc="T T T"
Si       0.00000000       0.00000000       0.00000000       14       0.00000000       0.00000000       0.00000000 
1
Lattice="2.763275733349189 7.446388685773421e-17 3.7481081842131927e-28 1.3816378666745945 2.393066982741471 5.270730544517534e-29 3.882985258299226e-28 -1.6776594551343178e-28 2.5779587261518304" Properties=species:S:1:pos:R:3:Z:I:1:forces:R:3 stress="0.06657330551442137 -1.2110465457285044e-17 -1.9286213573403442e-29 -1.2110465457285044e-17 0.06657330551442146 1.1467298221973763e-29 -1.9286213573403442e-29 1.1467298221973763e-29 0.06657510111587153" energy=-162.765091805 Minim_Constant_Volume=T Minim_Hydrostatic_Strain=F pbc="T T T"
Si       0.00000000       0.00000000       0.00000000       14       0.00000000       0.00000000       0.00000000 
1
Lattice="2.7834379916422396 1.523981960225984e-16 4.541163728627726e-28 1.3917189958211198 2.4105280106209164 3.324602661865619e-29 4.625078533657923e-28 -2.315878996402669e-28 2.597207336262938" Properties=species:S:1:pos:R:3:Z:I:1:forces:R:3 stress="0.07783792176945194 -1.2556776079854963e-17 -2.759698387061664e-29 -1.2556776079854963e-17 0.07783792176945212 3.231723911328158e-29 -2.759698387061664e-29 3.231723911328158e-29 0.07784364166413739" energy=-162.737698955 Minim_Constant_Volume=T Minim_Hydrostatic_Strain=F pbc="T T T"
Si       0.00000000       0.00000000       0.00000000       14       0.00000000       0.00000000       0.00000000 
