66
energy=-10762.58357400 enthalpy=-10762.58360000 calculate_stress=True cut_off_energy=250.0 elec_energy_tol=1e-07 fine_grid_scale=4.0 finite_basis_corr=automatic fix_occupancy=False max_scf_cycles=250 mix_history_length=20 mixing_scheme=pulay num_dump_cycles=0 opt_strategy=speed perc_extra_bands=200.0 smearing_width=0.05 spin_polarized=False task=GeometryOptimization xc_functional=PW91 kpoints_mp_grid="4       4       4" castep_file_name=castep.castep virial="7.05169495       2.30825652      -0.75146864       2.30825652       6.20882993      -0.40780722      -0.75146864      -0.40780722      21.37548843" cutoff=-1.00000000 nneightol=1.20000000 pbc="T T T" Lattice="10.92204330       0.00000000       0.00000000       0.00000000      10.92204330       0.00000000       0.00000000       0.00000000      10.92204330" Properties=species:S:1:pos:R:3:Z:I:1:frac_pos:R:3:force:R:3
Si             -4.37343734     -2.34707065     -5.19172775      14     -0.40042300     -0.21489300     -0.47534400      0.11134000      0.21237000      0.07018000
Si             -4.27779301     -2.21435690      0.25460375      14     -0.39166600     -0.20274200      0.02331100      0.11668000      0.02996000      0.00497000
Si             -4.28064366      3.23270638     -5.23963183      14     -0.39192700      0.29598000     -0.47973000     -0.05513000      0.04156000      0.02396000
Si             -4.28092764      3.18891990      0.58596762      14     -0.39195300      0.29197100      0.05365000      0.10031000     -0.00260000     -0.30011000
Si              1.15737616     -2.23753348     -5.24356377      14      0.10596700     -0.20486400     -0.48009000      0.04192000      0.00915000      0.03350000
Si              1.19443466     -2.36073413      0.70598996      14      0.10936000     -0.21614400      0.06463900     -0.10808000      0.43394000     -0.65202000
Si              1.26538425      3.30364505     -5.19096321      14      0.11585600      0.30247500     -0.47527400     -0.09895000     -0.02618000      0.06560000
Si              1.14855115      3.22342264      0.24811606      14      0.10515900      0.29513000      0.02271700     -0.10569000     -0.09842000      0.04007000
Si             -7.03495362     -4.97262064     -5.17171857      14     -0.64410600     -0.45528300     -0.47351200      0.09985000      0.04143000      0.10476000
Si             -6.95793137     -5.02599667      0.26481586      14     -0.63705400     -0.46017000      0.02424600     -0.00281000      0.01060000     -0.13329000
Si             -7.01525026      0.50500252     -5.21184615      14     -0.64230200      0.04623700     -0.47718600      0.01466000     -0.03546000     -0.01430000
Si             -6.98909196      0.52568887      0.25978080      14     -0.63990700      0.04813100      0.02378500     -0.02300000      0.00103000      0.02047000
Si             -1.54795935     -4.95598637     -5.18659439      14     -0.14172800     -0.45376000     -0.47487400      0.01590000     -0.05850000      0.04144000
Si             -1.58973617     -4.98579262      0.22995270      14     -0.14555300     -0.45648900      0.02105400      0.05638000      0.06565000      0.15924000
Si             -1.57747071      0.49174316     -5.23088328      14     -0.14443000      0.04502300     -0.47892900      0.01162000     -0.06099000      0.03814000
Si             -2.57617143      1.48805195      0.66467187      14     -0.23586900      0.13624300      0.06085600      0.04155000      0.01971000      0.02084000
Si             -4.26625933     -5.00327882     -2.41374973      14     -0.39061000     -0.45809000     -0.22099800     -0.07942000     -0.03375000      0.04949000
Si             -4.30388577     -4.92311102      3.03999784      14     -0.39405500     -0.45075000      0.27833600      0.10920000      0.02147000     -0.12601000
Si             -4.31915479      0.44291070     -2.62488374      14     -0.39545300      0.04055200     -0.24032900     -0.00666000      0.04809000      0.06225000
Si             -4.31391221      0.44998818      3.04632171      14     -0.39497300      0.04120000      0.27891500      0.01441000     -0.15922000     -0.05635000
Si              1.14691284     -4.92877956     -2.43528799      14      0.10500900     -0.45126900     -0.22297000      0.03985000      0.02516000      0.01137000
Si              1.17220830     -5.01676754      3.04816753      14      0.10732500     -0.45932500      0.27908400      0.04666000      0.01674000     -0.03615000
Si              1.15415416      0.60179366     -2.62413012      14      0.10567200      0.05509900     -0.24026000     -0.03992000      0.05022000     -0.18609000
Si              1.13517165      0.54928048      3.01246337      14      0.10393400      0.05029100      0.27581500      0.01769000      0.16408000      0.08521000
Si             -7.03900570     -2.22875216     -2.43696999      14     -0.64447700     -0.20406000     -0.22312400      0.03935000     -0.03690000      0.02733000
Si             -6.96137182     -2.26681548      3.03341185      14     -0.63736900     -0.20754500      0.27773300      0.00452000      0.22173000      0.07387000
Si             -6.96915923      3.21991666     -2.44107668      14     -0.63808200      0.29480900     -0.22350000      0.00844000      0.14151000      0.04274000
Si             -7.09699083      3.25701884      3.05272202      14     -0.64978600      0.29820600      0.27950100      0.11471000     -0.16813000     -0.04171000
Si             -1.63570705     -2.23872398     -2.58020167      14     -0.14976200     -0.20497300     -0.23623800      0.07934000      0.05748000     -0.01868000
Si             -1.62991837     -2.22157637      3.03807556      14     -0.14923200     -0.20340300      0.27816000     -0.07237000     -0.04422000     -0.02677000
Si             -1.51559734      3.27810931     -2.58465786      14     -0.13876500      0.30013700     -0.23664600      0.04108000     -0.07890000      0.03938000
Si             -1.51565195      3.23951081      3.03188277      14     -0.13877000      0.29660300      0.27759300      0.12561000     -0.01492000     -0.07859000
Si             -2.95373555     -6.31047265     -3.85338425      14     -0.27043800     -0.57777400     -0.35280800      0.13482000      0.00745000     -0.15947000
Si             -2.89449438     -6.24840267      1.73000797      14     -0.26501400     -0.57209100      0.15839600     -0.11941000     -0.18727000      0.12547000
Si             -3.00386772     -0.94012580     -3.97898775      14     -0.27502800     -0.08607600     -0.36430800     -0.00408000     -0.07665000      0.07195000
Si             -2.89388275     -0.81645550      1.57449992      14     -0.26495800     -0.07475300      0.14415800     -0.19193000      0.10518000     -0.01002000
Si              2.56840586     -6.29117340     -3.74713462      14      0.23515800     -0.57600700     -0.34308000     -0.04115000     -0.09457000     -0.06397000
Si              2.52137554     -6.33384582      1.61902909      14      0.23085200     -0.57991400      0.14823500     -0.08473000     -0.02268000      0.02448000
Si              2.53520285     -0.88541728     -3.89238687      14      0.23211800     -0.08106700     -0.35637900     -0.00099000      0.16365000     -0.02572000
Si              2.63554366     -0.79784434      1.78809140      14      0.24130500     -0.07304900      0.16371400     -0.05009000     -0.36870000     -0.08382000
Si             -5.67661186     -3.67069123     -3.75311990      14     -0.51973900     -0.33608100     -0.34362800      0.01308000      0.01819000     -0.23253000
Si             -5.63784953     -3.59694560      1.61339331      14     -0.51619000     -0.32932900      0.14771900      0.06892000      0.00403000      0.05807000
Si             -5.66636699      1.89884092     -3.88046000      14     -0.51880100      0.17385400     -0.35528700      0.05977000     -0.18462000      0.01696000
Si             -5.73988326      1.84543212      1.78388641      14     -0.52553200      0.16896400      0.16332900      0.04842000      0.17151000      0.10661000
Si             -0.17540802     -3.58045331     -3.84635046      14     -0.01606000     -0.32781900     -0.35216400     -0.16258000     -0.00800000      0.02336000
Si             -0.32662370     -3.74839065      1.79288617      14     -0.02990500     -0.34319500      0.16415300      0.07768000      0.03112000     -0.13304000
Si             -0.18582764      1.97338386     -4.01021387      14     -0.01701400      0.18067900     -0.36716700     -0.02051000     -0.03737000      0.15105000
Si             -0.26050165      1.81396572      1.53830427      14     -0.02385100      0.16608300      0.14084400     -0.08650000      0.06591000      0.09651000
Si             -2.94722601     -3.60602182     -6.51813345      14     -0.26984200     -0.33016000     -0.59678700     -0.01104000     -0.06980000      0.06208000
Si             -2.91663336     -3.57559300     -1.11044414      14     -0.26704100     -0.32737400     -0.10167000      0.01974000      0.06171000     -0.00326000
Si             -2.92336134      1.84893810     -6.58909397      14     -0.26765700      0.16928500     -0.60328400     -0.02549000      0.17498000     -0.02485000
Si             -2.46168657      1.39585898     -1.59978445      14     -0.22538700      0.12780200     -0.14647300      0.08235000     -0.05029000     -0.16101000
Si              2.54958718     -3.61184327     -6.55845764      14      0.23343500     -0.33069300     -0.60047900     -0.09246000      0.00561000     -0.06022000
Si              2.51416699     -3.61853848     -1.01644904      14      0.23019200     -0.33130600     -0.09306400      0.12512000     -0.17581000      0.28149000
Si              2.51365366      1.87748832     -6.52476314      14      0.23014500      0.17189900     -0.59739400      0.07044000     -0.07914000      0.00328000
Si              2.52068745      1.88477332     -1.12036136      14      0.23078900      0.17256600     -0.10257800      0.05893000      0.06108000     -0.00631000
Si             -5.67550874     -6.30950058     -6.56129737      14     -0.51963800     -0.57768500     -0.60073900      0.02711000     -0.09957000      0.03748000
Si             -5.52756966     -6.45212063     -1.03274473      14     -0.50609300     -0.59074300     -0.09455600     -0.10602000     -0.00224000      0.10898000
Si             -5.64576801     -0.91247119     -6.50710219      14     -0.51691500     -0.08354400     -0.59577700     -0.12708000     -0.02942000      0.00409000
Si             -5.61330770     -0.83870371     -1.11994632      14     -0.51394300     -0.07679000     -0.10254000      0.02624000      0.00054000     -0.03369000
Si             -0.15783445     -6.34188444     -6.50428430      14     -0.01445100     -0.58065000     -0.59551900     -0.16360000      0.06799000      0.05485000
Si             -0.20758435     -6.33669647     -1.11733595      14     -0.01900600     -0.58017500     -0.10230100     -0.02932000     -0.03276000      0.00641000
Si             -0.21141799     -0.86600881     -6.58414628      14     -0.01935700     -0.07929000     -0.60283100      0.06021000      0.04693000      0.01884000
Si             -0.80041102     -0.27865409     -1.62151931      14     -0.07328400     -0.02551300     -0.14846300      0.19629000     -0.20889000      0.26082000
Si             -0.54268357     -0.56283474      0.67845549      14     -0.04968700     -0.05153200      0.06211800      0.34130000      0.01834000     -0.41426000
Si              2.19798476     -0.94698484     -0.96544310      14      0.20124300     -0.08670400     -0.08839400     -0.75244000     -0.07012000      0.55467000
66
energy=-10762.63796282 calculate_stress=True cut_off_energy=250.0 elec_energy_tol=1e-07 fine_grid_scale=4.0 finite_basis_corr=automatic fix_occupancy=False max_scf_cycles=250 mix_history_length=20 mixing_scheme=pulay num_dump_cycles=0 opt_strategy=speed perc_extra_bands=200.0 smearing_width=0.05 spin_polarized=False task=GeometryOptimization xc_functional=PW91 castep_file_name=castep.castep virial="5.17853221       2.01044801      -0.63316831       2.01044801       4.41124379      -0.29724822      -0.63316831      -0.29724822      18.77794193" cutoff=-1.00000000 nneightol=1.20000000 pbc="T T T" Lattice="10.92835730       0.00206680      -0.00067290       0.00206680      10.92760260      -0.00036510      -0.00067290      -0.00036510      10.94118270" Properties=species:S:1:pos:R:3:Z:I:1:frac_pos:R:3:force:R:3
Si             -4.37569635     -2.34818714     -5.20023699      14     -0.40038700     -0.21482600     -0.47532200      0.10951000      0.20441000      0.06589000
Si             -4.28028541     -2.21620359      0.25539840      14     -0.39162800     -0.20273300      0.02331200      0.11001000      0.02871000      0.00572000
Si             -4.28238044      3.23386988     -5.24858132      14     -0.39194500      0.29599400     -0.47972300     -0.05414000      0.03665000      0.02935000
Si             -4.28248531      3.18970256      0.58610122      14     -0.39192100      0.29197000      0.05355400      0.09355000     -0.00861000     -0.27513000
Si              1.15808695     -2.23824528     -5.25263951      14      0.10598000     -0.20486100     -0.48008000      0.03872000      0.00747000      0.03861000
Si              1.19426380     -2.36021437      0.70495664      14      0.10932600     -0.21600500      0.06443100     -0.12061000      0.41059000     -0.62043000
Si              1.26672192      3.30564115     -5.20001827      14      0.11582500      0.30246600     -0.47525300     -0.10267000     -0.03274000      0.06171000
Si              1.14943817      3.22492265      0.24851460      14      0.10512500      0.29509800      0.02273000     -0.10296000     -0.09630000      0.04021000
Si             -7.03929315     -4.97616794     -5.17980969      14     -0.64407400     -0.45527000     -0.47347800      0.09217000      0.03588000      0.09966000
Si             -6.96293202     -5.02984761      0.26541707      14     -0.63705500     -0.46016700      0.02420400     -0.00314000      0.00767000     -0.11000000
Si             -7.01884540      0.50398608     -5.22061859      14     -0.64229800      0.04622600     -0.47719100      0.01364000     -0.03579000     -0.01013000
Si             -6.99312537      0.52462518      0.26071470      14     -0.63991400      0.04813100      0.02379100     -0.02575000     -0.00250000      0.02490000
Si             -1.54940699     -4.95882519     -5.19527992      14     -0.14172200     -0.45377800     -0.47486100      0.01427000     -0.05412000      0.04292000
Si             -1.59141611     -4.98840940      0.23117825      14     -0.14553500     -0.45646800      0.02110500      0.04969000      0.05886000      0.16246000
Si             -1.57793458      0.49165125     -5.23983764      14     -0.14442700      0.04500300     -0.47891700      0.00744000     -0.05652000      0.03491000
Si             -2.57727799      1.48836524      0.66601122      14     -0.23585600      0.13624900      0.06086200      0.04619000      0.01365000     -0.02047000
Si             -4.26980789     -5.00667236     -2.41737432      14     -0.39063600     -0.45810100     -0.22098200     -0.07481000     -0.03486000      0.04572000
Si             -4.30711020     -4.92645635      3.04531708      14     -0.39402000     -0.45074300      0.27829600      0.10452000      0.01710000     -0.11243000
Si             -4.32142799      0.44257047     -2.62901338      14     -0.39545500      0.04056700     -0.24030900      0.00102000      0.03859000      0.06229000
Si             -4.31646498      0.44874177      3.05171378      14     -0.39496900      0.04114900      0.27889700      0.01019000     -0.15217000     -0.04498000
Si              1.14693531     -4.93090241     -2.43942860      14      0.10502200     -0.45126100     -0.22296700      0.03856000      0.02197000      0.01544000
Si              1.17191276     -5.01914647      3.05348415      14      0.10734000     -0.45932000      0.27907300      0.03687000      0.01310000     -0.02852000
Si              1.15495493      0.60258093     -2.62947625      14      0.10565900      0.05511500     -0.24032000     -0.03562000      0.04553000     -0.17204000
Si              1.13581189      0.55024241      3.01794940      14      0.10394000      0.05034300      0.27584200      0.02031000      0.15382000      0.08420000
Si             -7.04321543     -2.23126824     -2.44063381      14     -0.64446500     -0.20407200     -0.22311500      0.02948000     -0.03387000      0.03227000
Si             -6.96599002     -2.26861214      3.03949472      14     -0.63736700     -0.20747400      0.27775700      0.00403000      0.20663000      0.07674000
Si             -6.97239551      3.22081015     -2.44489039      14     -0.63807900      0.29485400     -0.22348700      0.00953000      0.13099000      0.03978000
Si             -7.10026107      3.25665256      3.05825763      14     -0.64974900      0.29815300      0.27948800      0.10528000     -0.16118000     -0.03328000
Si             -1.63664407     -2.23987909     -2.58461318      14     -0.14973700     -0.20495400     -0.23624400      0.07021000      0.05791000     -0.01647000
Si             -1.63171956     -2.22327017      3.04348655      14     -0.14925500     -0.20341700      0.27815200     -0.06907000     -0.04224000     -0.02230000
Si             -1.51555193      3.27930429     -2.58906109      14     -0.13875200      0.30011200     -0.23663300      0.04160000     -0.07913000      0.03656000
Si             -1.51566477      3.24072794      3.03690726      14     -0.13873000      0.29659900      0.27756800      0.12055000     -0.01363000     -0.06824000
Si             -2.95592987     -6.31408191     -3.86030189      14     -0.27039500     -0.57777100     -0.35285900      0.12969000      0.00737000     -0.15091000
Si             -2.89787209     -6.25283348      1.73386447      14     -0.26505200     -0.57215000      0.15843600     -0.11409000     -0.18076000      0.11210000
Si             -3.00554801     -0.94131294     -3.98550318      14     -0.27502900     -0.08610100     -0.36428600     -0.00194000     -0.06870000      0.07491000
Si             -2.89648468     -0.81711084      1.57743180      14     -0.26502000     -0.07472000      0.14415500     -0.18359000      0.10402000     -0.01087000
Si              2.56878890     -6.29409216     -3.75386770      14      0.23514500     -0.57603700     -0.34310000     -0.03927000     -0.08718000     -0.06975000
Si              2.52123974     -6.33673421      1.62201015      14      0.23082500     -0.57992200      0.14824300     -0.07786000     -0.02518000      0.02148000
Si              2.53674081     -0.88468987     -3.89942189      14      0.23211800     -0.08101500     -0.35638700      0.00158000      0.15806000     -0.02466000
Si              2.63663104     -0.79909004      1.79080466      14      0.24128900     -0.07316600      0.16368800     -0.05508000     -0.35256000     -0.08775000
Si             -5.68031310     -3.67344275     -3.76003395      14     -0.51973500     -0.33607500     -0.34370200      0.01737000      0.02440000     -0.22857000
Si             -5.64164840     -3.59987534      1.61688508      14     -0.51616800     -0.32932700      0.14773700      0.06560000      0.00797000      0.05346000
Si             -5.66883679      1.89823112     -3.88691964      14     -0.51878200      0.17379600     -0.35528200      0.05540000     -0.17416000      0.01483000
Si             -5.74278721      1.84582668      1.78767634      14     -0.52551600      0.16901900      0.16336300      0.05599000      0.16554000      0.09083000
Si             -0.17651827     -3.58220234     -3.85288355      14     -0.01611200     -0.32782100     -0.35215700     -0.15359000     -0.00697000      0.01777000
Si             -0.32735904     -3.75031097      1.79570290      14     -0.02988000     -0.34318500      0.16411000      0.09028000      0.04165000     -0.13765000
Si             -0.18538020      1.97435604     -4.01677056      14     -0.01702000      0.18066700     -0.36711900     -0.01806000     -0.03463000      0.14416000
Si             -0.26069881      1.81501772      1.54128359      14     -0.02387800      0.16610400      0.14087400     -0.08139000      0.06262000      0.09265000
Si             -2.94925436     -3.60843752     -6.52903465      14     -0.26984600     -0.33018200     -0.59676700     -0.01243000     -0.06356000      0.05665000
Si             -2.91886205     -3.57770921     -1.11210178      14     -0.26703500     -0.32735400     -0.10167100      0.02145000      0.05833000     -0.00742000
Si             -2.92439374      1.85015820     -6.60059877      14     -0.26766600      0.16934100     -0.60329100     -0.02377000      0.16605000     -0.02575000
Si             -2.46246283      1.39598235     -1.60304086      14     -0.22536100      0.12778600     -0.14652400      0.08317000     -0.05248000     -0.12865000
Si              2.55045384     -3.61295819     -6.57020559      14      0.23340500     -0.33069100     -0.60049900     -0.08417000      0.00623000     -0.05874000
Si              2.51543526     -3.62048246     -1.01729040      14      0.23023200     -0.33136200     -0.09297500      0.12424000     -0.16950000      0.25534000
Si              2.51610443      1.87885366     -6.53640359      14      0.23016700      0.17187300     -0.59739300      0.06936000     -0.06950000      0.00295000
Si              2.52276709      1.88645478     -1.12256484      14      0.23080700      0.17258500     -0.10258000      0.05510000      0.05929000     -0.00944000
Si             -5.67949210     -6.31390551     -6.57210328      14     -0.51963000     -0.57771600     -0.60072700      0.02588000     -0.09068000      0.03118000
Si             -5.53229404     -6.45642722     -1.03362622      14     -0.50612700     -0.59074400     -0.09452200     -0.10223000      0.00206000      0.09442000
Si             -5.64924074     -0.91389583     -6.51811570      14     -0.51695500     -0.08355400     -0.59577600     -0.11809000     -0.02346000      0.00133000
Si             -5.61654408     -0.84015536     -1.12164442      14     -0.51393400     -0.07679000     -0.10255000      0.02367000      0.00051000     -0.03403000
Si             -0.15929330     -6.34469553     -6.51526349      14     -0.01450300     -0.58062900     -0.59550100     -0.15189000      0.06853000      0.04661000
Si             -0.20893300     -6.34003307     -1.11904743      14     -0.01901500     -0.58018500     -0.10229900     -0.02784000     -0.02868000      0.00418000
Si             -0.21109078     -0.86610557     -6.59557651      14     -0.01933800     -0.07927500     -0.60282500      0.05803000      0.04517000      0.01439000
Si             -0.80014920     -0.27961431     -1.62339408      14     -0.07322200     -0.02557900     -0.14838000      0.19645000     -0.20418000      0.25898000
Si             -0.54195430     -0.56318075      0.67825232      14     -0.04957800     -0.05152600      0.06198600      0.33219000      0.02393000     -0.42130000
Si              2.19651272     -0.94725962     -0.96531285      14      0.20100300     -0.08672600     -0.08821800     -0.73874000     -0.05540000      0.54234000
66
energy=-10762.82028829 enthalpy=-10762.82040000 calculate_stress=True cut_off_energy=250.0 elec_energy_tol=1e-07 fine_grid_scale=4.0 finite_basis_corr=automatic fix_occupancy=False max_scf_cycles=250 mix_history_length=20 mixing_scheme=pulay num_dump_cycles=0 opt_strategy=speed perc_extra_bands=200.0 smearing_width=0.05 spin_polarized=False task=GeometryOptimization xc_functional=PW91 castep_file_name=castep.castep virial="-7.46047935      -0.01492392       0.13665286      -0.01492392      -7.72991684       0.42821835       0.13665286       0.42821835       0.79460308" cutoff=-1.00000000 nneightol=1.20000000 pbc="T T T" Lattice="10.97279090       0.01661140      -0.00540800       0.01661140      10.96672520      -0.00293480      -0.00540800      -0.00293480      11.07587220" Properties=species:S:1:pos:R:3:Z:I:1:frac_pos:R:3:force:R:3
Si             -4.39162156     -2.35595892     -5.26006272      14     -0.40013800     -0.21434900     -0.47516400      0.09650000      0.15049000      0.03439000
Si             -4.29788095     -2.22915193      0.26103386      14     -0.39136700     -0.20266600      0.02332300      0.06630000      0.02200000      0.00769000
Si             -4.29456771      3.24199970     -5.31150119      14     -0.39206800      0.29608700     -0.47966900     -0.04590000      0.00411000      0.06212000
Si             -4.29343434      3.19523811      0.58696463      14     -0.39169600      0.29196500      0.05288100      0.05026000     -0.04761000     -0.10124000
Si              1.16312099     -2.24326420     -5.31644652      14      0.10607400     -0.20484100     -0.48000500      0.01725000     -0.00231000      0.06944000
Si              1.19304341     -2.35656961      0.69746667      14      0.10908400     -0.21503200      0.06296800     -0.20194000      0.24706000     -0.39573000
Si              1.27608032      3.31972914     -5.26372602      14      0.11560300      0.30240700     -0.47510600     -0.12715000     -0.07613000      0.03435000
Si              1.15568900      3.23551039      0.25131876      14      0.10488800      0.29487700      0.02282000     -0.08504000     -0.08118000      0.03797000
Si             -7.06983325     -5.00110745     -5.23676119      14     -0.64385000     -0.45517700     -0.47324300      0.04121000     -0.00065000      0.06231000
Si             -6.99812101     -5.05691448      0.26956438      14     -0.63706200     -0.46014300      0.02390500     -0.00367000     -0.01290000      0.04756000
Si             -7.04409218      0.49680213     -5.28232302      14     -0.64226500      0.04614600     -0.47722300      0.00681000     -0.03811000      0.01729000
Si             -7.02154244      0.51717166      0.26733524      14     -0.63996600      0.04813400      0.02383700     -0.04428000     -0.02542000      0.05068000
Si             -1.55967434     -4.97885554     -5.25637132      14     -0.14168700     -0.45390900     -0.47476800      0.00332000     -0.02453000      0.05134000
Si             -1.60322776     -5.00681446      0.23983594      14     -0.14540800     -0.45632000      0.02146200      0.00644000      0.01481000      0.17914000
Si             -1.58114717      0.49103966     -5.30282171      14     -0.14440100      0.04486600     -0.47883100     -0.01974000     -0.02552000      0.01124000
Si             -2.58503249      1.49060375      0.67549531      14     -0.23576200      0.13629400      0.06090900      0.07725000     -0.02780000     -0.28634000
Si             -4.29473679     -5.03054501     -2.44288079      14     -0.39081400     -0.45817700     -0.22087100     -0.04334000     -0.03999000      0.01761000
Si             -4.32981188     -4.95000530      3.08268870      14     -0.39377600     -0.45069500      0.27801300      0.07419000     -0.01213000     -0.02213000
Si             -4.33743511      0.44020709     -2.65806182      14     -0.39547000      0.04067500     -0.24016900      0.05385000     -0.02467000      0.05979000
Si             -4.33438012      0.43997608      3.08963699      14     -0.39493600      0.04079200      0.27877000     -0.01775000     -0.10373000      0.02833000
Si              1.14707154     -4.94584092     -2.46851027      14      0.10511100     -0.45120500     -0.22294100      0.03014000     -0.00094000      0.04127000
Si              1.16983341     -5.03585346      3.09084658      14      0.10744500     -0.45928200      0.27899200     -0.02778000     -0.00903000      0.01954000
Si              1.16061684      0.60811951     -2.66710525      14      0.10557000      0.05522700     -0.24073700     -0.00697000      0.01165000     -0.07786000
Si              1.14030039      0.55705075      3.05659508      14      0.10398000      0.05071100      0.27603300      0.03633000      0.08432000      0.07611000
Si             -7.07279909     -2.24895020     -2.46643366      14     -0.64437700     -0.20415400     -0.22305400     -0.03178000     -0.01458000      0.06181000
Si             -6.99852627     -2.28126292      3.08228282      14     -0.63735700     -0.20697700      0.27792200      0.00037000      0.10531000      0.09393000
Si             -6.99518766      3.22711578     -2.47166581      14     -0.63806000      0.29517100     -0.22339100      0.01561000      0.06085000      0.01915000
Si             -7.12330439      3.25401863      3.09717078      14     -0.64949200      0.29777600      0.27939400      0.04277000     -0.11352000      0.02259000
Si             -1.64320423     -2.24805042     -2.61566360      14     -0.14955900     -0.20482500     -0.23628600      0.00985000      0.06237000     -0.00314000
Si             -1.64440611     -2.23520222      3.08151678      14     -0.14941700     -0.20351600      0.27809200     -0.04433000     -0.02841000      0.00508000
Si             -1.51522561      3.28769560     -2.62007257      14     -0.13866000      0.29993500     -0.23654500      0.04487000     -0.08120000      0.01531000
Si             -1.51573473      3.24923296      3.07222563      14     -0.13844800      0.29656500      0.27739100      0.08505000     -0.00429000      0.00061000
Si             -2.97136114     -6.33953032     -3.90901902      14     -0.27009300     -0.57775500     -0.35321600      0.09477000      0.00537000     -0.09141000
Si             -2.92167041     -6.28409099      1.76104444      14     -0.26532000     -0.57257000      0.15871700     -0.07994000     -0.13786000      0.02417000
Si             -3.01739838     -0.94962145     -4.03125029      14     -0.27503800     -0.08627200     -0.36412400      0.01250000     -0.01562000      0.09612000
Si             -2.91474410     -0.82167806      1.59805284      14     -0.26545000     -0.07448400      0.14413300     -0.13225000      0.09775000     -0.01387000