66
energy=-10764.04177400 enthalpy=-10764.04180000 calculate_stress=True cut_off_energy=250.0 elec_energy_tol=1e-07 fine_grid_scale=4.0 finite_basis_corr=automatic fix_occupancy=False max_scf_cycles=250 mix_history_length=20 mixing_scheme=pulay num_dump_cycles=0 opt_strategy=speed perc_extra_bands=200.0 smearing_width=0.05 spin_polarized=False task=GeometryOptimization xc_functional=PW91 kpoints_mp_grid="4       4       4" castep_file_name=castep.castep virial="10.03055477      -1.13121207       1.55495816      -1.13121207      10.00845992       1.47551593       1.55495816       1.47551593       9.95678060" cutoff=-1.00000000 nneightol=1.20000000 pbc="T T T" Lattice="10.92204330       0.00000000       0.00000000       0.00000000      10.92204330       0.00000000       0.00000000       0.00000000      10.92204330" Properties=species:S:1:pos:R:3:Z:I:1:frac_pos:R:3:force:R:3
Si             -4.56174429     -4.56129649     -4.56525027      14     -0.41766400     -0.41762300     -0.41798500      0.05036000      0.02082000     -0.00008000
Si             -4.55274453     -4.55750654      0.89943027      14     -0.41684000     -0.41727600      0.08235000     -0.07442000      0.00816000      0.01182000
Si             -4.55608667      0.89483209     -4.56368842      14     -0.41714600      0.08192900     -0.41784200     -0.00173000      0.04153000     -0.04638000
Si             -4.57123555      0.89975793      0.89443889      14     -0.41853300      0.08238000      0.08189300      0.03162000      0.05227000      0.06888000
Si              0.89415492     -4.55983294     -4.56985937      14      0.08186700     -0.41748900     -0.41840700      0.04362000      0.05629000      0.06265000
Si              0.90516434     -4.57758126      0.89201420      14      0.08287500     -0.41911400      0.08167100     -0.02308000      0.10796000      0.06858000
Si              0.90671527      0.90088290     -4.54738181      14      0.08301700      0.08248300     -0.41634900     -0.06219000     -0.02038000     -0.07147000
Si              0.05620483      1.90331895      1.74728664      14      0.00514600      0.17426400      0.15997800      0.14315000     -0.37799000     -0.21161000
Si             -7.28523224     -7.28109279     -4.55576994      14     -0.66702100     -0.66664200     -0.41711700      0.06015000     -0.01526000     -0.09237000
Si             -7.25845139     -7.26262361      0.86005630      14     -0.66456900     -0.66495100      0.07874500     -0.02774000      0.03964000      0.11530000
Si             -7.27423375     -1.82107597     -4.56791525      14     -0.66601400     -0.16673400     -0.41822900      0.06760000     -0.15049000     -0.07159000
Si             -7.21434818     -1.89259351      0.89162100      14     -0.66053100     -0.17328200      0.08163500     -0.03765000      0.03549000     -0.08324000
Si             -1.82175313     -7.26727640     -4.56791525      14     -0.16679600     -0.66537700     -0.41822900     -0.09049000     -0.10978000     -0.05819000
Si             -1.89259351     -7.21569159      0.89156639      14     -0.17328200     -0.66065400      0.08163000      0.04235000     -0.01738000     -0.09578000
Si             -1.82897260     -1.82718139     -4.59618150      14     -0.16745700     -0.16729300     -0.42081700     -0.02985000     -0.06751000      0.00360000
Si             -1.84111792     -1.83661804      0.84142329      14     -0.16856900     -0.16815700      0.07703900     -0.01016000     -0.07800000      0.05590000
Si             -4.54827741     -7.26717811     -7.29596861      14     -0.41643100     -0.66536800     -0.66800400      0.00020000     -0.06324000      0.06440000
Si             -4.56510828     -7.28670672     -1.83543845      14     -0.41797200     -0.66715600     -0.16804900      0.03345000      0.07289000     -0.08453000
Si             -4.52853036     -1.82199342     -7.29439584      14     -0.41462300     -0.16681800     -0.66786000     -0.04385000     -0.12146000     -0.02913000
Si             -4.54846309     -1.82542294     -1.85351444      14     -0.41644800     -0.16713200     -0.16970400      0.00205000     -0.04319000      0.01370000
Si              0.90838634     -7.22007133     -7.23007593      14      0.08317000     -0.66105500     -0.66197100      0.06340000      0.04546000     -0.02639000
Si              0.93742805     -7.25852785     -1.86263434      14      0.08582900     -0.66457600     -0.17053900     -0.02876000     -0.05785000     -0.02131000
Si              0.95741539     -1.83743719     -7.28501380      14      0.08765900     -0.16823200     -0.66700100     -0.07167000     -0.05919000      0.07715000
Si              0.90195326     -1.88459857     -1.90390874      14      0.08258100     -0.17255000     -0.17431800      0.13197000     -0.08045000     -0.00900000
Si             -7.26775697     -4.54912933     -7.29281214      14     -0.66542100     -0.41650900     -0.66771500     -0.08194000      0.02053000     -0.02767000
Si             -7.28671764     -4.56171153     -1.83967621      14     -0.66715700     -0.41766100     -0.16843700      0.10446000     -0.03467000     -0.05738000
Si             -7.21670734      0.90000913     -7.23094969      14     -0.66074700      0.08240300     -0.66205100     -0.02322000      0.13910000     -0.02130000
Si             -7.26212120      0.93682734     -1.86416343      14     -0.66490500      0.08577400     -0.17067900      0.03685000     -0.04517000      0.02076000
Si             -1.82644961     -4.52712142     -7.29462520      14     -0.16722600     -0.41449400     -0.66788100     -0.06179000     -0.06328000     -0.01331000
Si             -1.82867771     -4.55165232     -1.84976818      14     -0.16743000     -0.41674000     -0.16936100      0.02843000      0.01125000     -0.07382000
Si             -1.83448824      0.95358176     -7.28372500      14     -0.16796200      0.08730800     -0.66688300     -0.10542000      0.00970000      0.06497000
Si             -1.88742738      0.90725045     -1.90171341      14     -0.17280900      0.08306600     -0.17411700     -0.01801000      0.04918000     -0.06091000
Si             -3.18192980     -3.18458385     -3.22163142      14     -0.29133100     -0.29157400     -0.29496600     -0.01875000     -0.00082000      0.00278000
Si             -3.19167226     -3.19334333      2.24419593      14     -0.29222300     -0.29237600      0.20547400     -0.05838000      0.00016000      0.04184000
Si             -3.22941884      2.29833649     -3.24508105      14     -0.29567900      0.21043100     -0.29711300      0.04533000     -0.04318000      0.06055000
Si             -3.21769949      2.28747998      2.24555026      14     -0.29460600      0.20943700      0.20559800      0.05272000     -0.05503000     -0.00283000
Si              2.30433270     -3.22981203     -3.24529949      14      0.21098000     -0.29571500     -0.29713300     -0.19885000      0.05192000      0.03770000
Si              2.28310024     -3.21324329      2.24288528      14      0.20903600     -0.29419800      0.20535400      0.02651000     -0.03563000      0.00827000
Si              2.27310657      2.27142458     -3.21418259      14      0.20812100      0.20796700     -0.29428400     -0.02778000      0.01029000      0.07110000
Si              2.38936080      2.39032194      2.37566456      14      0.21876500      0.21885300      0.21751100     -0.00662000     -0.06627000     -0.07406000
Si             -5.92599488     -5.92941348     -3.19853130      14     -0.54257200     -0.54288500     -0.29285100      0.01797000      0.05610000      0.05334000
Si             -5.91426460     -5.91483255      2.26640044      14     -0.54149800     -0.54155000      0.20750700     -0.00207000      0.01323000     -0.12117000
Si             -5.91463595     -0.46196967     -3.21092782      14     -0.54153200     -0.04229700     -0.29398600     -0.00237000      0.04870000      0.07049000
Si             -5.90026254     -0.47215993      2.27048528      14     -0.54021600     -0.04323000      0.20788100     -0.03522000      0.03297000     -0.05237000
Si             -0.45897703     -5.92126563     -3.20983562      14     -0.04202300     -0.54213900     -0.29388600      0.01692000      0.10942000      0.07319000
Si             -0.47304462     -5.89717161      2.27046344      14     -0.04331100     -0.53993300      0.20787900      0.06734000     -0.09202000     -0.02136000
Si             -0.47663797     -0.47794861     -3.22996494      14     -0.04364000     -0.04376000     -0.29572900      0.06889000      0.12593000      0.10909000
Si             -0.54304399     -0.54112171      2.34084509      14     -0.04972000     -0.04954400      0.21432300      0.19931000      0.15383000     -0.18664000
Si             -3.18143830     -5.90654272     -5.93621791      14     -0.29128600     -0.54079100     -0.54350800      0.01966000      0.05965000     -0.02633000
Si             -3.22739826     -5.87453021     -0.50383386      14     -0.29549400     -0.53786000     -0.04613000     -0.01445000     -0.09729000      0.08197000
Si             -3.19617214     -0.45204153     -5.92888922      14     -0.29263500     -0.04138800     -0.54283700      0.01075000      0.08121000      0.03359000
Si             -3.21697863     -0.44328205     -0.48167303      14     -0.29454000     -0.04058600     -0.04410100      0.04254000     -0.02607000     -0.06648000
Si              2.30005125     -5.87406056     -5.89296662      14      0.21058800     -0.53781700     -0.53954800     -0.04882000     -0.08112000     -0.03517000
Si              2.27281168     -5.91095522     -0.47673627      14      0.20809400     -0.54119500     -0.04364900      0.01308000     -0.04454000      0.04096000
Si              2.28584168     -0.44751980     -5.90107077      14      0.20928700     -0.04097400     -0.54029000     -0.03305000      0.01053000     -0.08284000
Si              2.39016903     -0.57180173     -0.58881828      14      0.21883900     -0.05235300     -0.05391100     -0.04092000      0.04316000      0.04420000
Si             -5.90409618     -3.18725975     -5.94089254      14     -0.54056700     -0.29181900     -0.54393600      0.01520000      0.12276000      0.04355000
Si             -5.87982740     -3.22759486     -0.50245768      14     -0.53834500     -0.29551200     -0.04600400      0.02105000     -0.01015000      0.06173000
Si             -5.87633235      2.29702585     -5.89697501      14     -0.53802500      0.21031100     -0.53991500     -0.05076000     -0.02229000      0.02694000
Si             -5.91050742      2.27318303     -0.47150461      14     -0.54115400      0.20812800     -0.04317000     -0.03125000     -0.08063000     -0.00573000
Si             -0.45276238     -3.19725342     -5.92983944      14     -0.04145400     -0.29273400     -0.54292400      0.07174000      0.03335000      0.02594000
Si             -0.44737782     -3.22028801     -0.48280892      14     -0.04096100     -0.29484300     -0.04420500      0.01257000      0.07398000     -0.02262000
Si             -0.44190587      2.28257599     -5.90259986      14     -0.04046000      0.20898800     -0.54043000     -0.02514000     -0.00014000     -0.03302000
Si             -0.57539509      2.39153429     -0.59727194      14     -0.05268200      0.21896400     -0.05468500      0.07758000     -0.03839000      0.15030000
Si              0.05392213      0.05270978     -0.10227401      14      0.00493700      0.00482600     -0.00936400      0.16754000      0.18944000      0.39301000
Si              1.90776423      0.05362723      1.74576848      14      0.17467100      0.00491000      0.15983900     -0.39998000      0.17200000     -0.17216000
66
energy=-10764.06981040 calculate_stress=True cut_off_energy=250.0 elec_energy_tol=1e-07 fine_grid_scale=4.0 finite_basis_corr=automatic fix_occupancy=False max_scf_cycles=250 mix_history_length=20 mixing_scheme=pulay num_dump_cycles=0 opt_strategy=speed perc_extra_bands=200.0 smearing_width=0.05 spin_polarized=False task=GeometryOptimization xc_functional=PW91 castep_file_name=castep.castep virial="8.22156695      -1.00960333       1.33472485      -1.00960333       8.20511604       1.27787220       1.33472485       1.27787220       8.15807850" cutoff=-1.00000000 nneightol=1.20000000 pbc="T T T" Lattice="10.93102450      -0.00101290       0.00139230      -0.00101290      10.93100480       0.00132120       0.00139230       0.00132120      10.93095850" Properties=species:S:1:pos:R:3:Z:I:1:frac_pos:R:3:force:R:3
Si             -4.56547948     -4.56510264     -4.57010994      14     -0.41764800     -0.41761700     -0.41798500      0.05011000      0.02346000     -0.00251000
Si             -4.55620235     -4.56068212      0.89907646      14     -0.41686300     -0.41727300      0.08235400     -0.06694000      0.00999000      0.00682000
Si             -4.56049793      0.89557885     -4.56805006      14     -0.41714600      0.08194200     -0.41785700     -0.00008000      0.04521000     -0.04364000
Si             -4.57485458      0.90121415      0.89493562      14     -0.41852300      0.08239700      0.08191500      0.03463000      0.05083000      0.06166000
Si              0.89488355     -4.56401322     -4.57380849      14      0.08188100     -0.41747100     -0.41838700      0.04640000      0.05417000      0.05697000
Si              0.90635943     -4.58094149      0.89254448      14      0.08286700     -0.41908000      0.08169300     -0.01959000      0.10576000      0.06188000
Si              0.90657899      0.90091137     -4.55112053      14      0.08299700      0.08247600     -0.41637200     -0.05537000     -0.01541000     -0.07057000
Si              0.05678920      1.90376398      1.74820688      14      0.00519100      0.17414300      0.15991000      0.14547000     -0.37165000     -0.20949000
Si             -7.29090982     -7.28699709     -4.56162598      14     -0.66700100     -0.66664700     -0.41714700      0.06019000     -0.01053000     -0.08624000
Si             -7.26373520     -7.26766323      0.85935896      14     -0.66457800     -0.66493800      0.07878200     -0.02363000      0.03793000      0.10715000
Si             -7.28038827     -1.82297285     -4.57304287      14     -0.66599200     -0.16678200     -0.41825200      0.06339000     -0.13774000     -0.06751000
Si             -7.22012259     -1.89324925      0.89091599      14     -0.66054300     -0.17327100      0.08160900     -0.03625000      0.03804000     -0.08355000
Si             -1.82347649     -7.27400538     -4.57296294      14     -0.16682500     -0.66541200     -0.41824800     -0.08232000     -0.09986000     -0.05529000
Si             -1.89322489     -7.22138339      0.89085211      14     -0.17326900     -0.66065900      0.08160000      0.04460000     -0.01718000     -0.09368000
Si             -1.83100231     -1.82930742     -4.60037645      14     -0.16746700     -0.16731500     -0.42081600     -0.02360000     -0.05830000      0.00563000
Si             -1.84238703     -1.83811476      0.84184997      14     -0.16857200     -0.16818100      0.07705700     -0.00812000     -0.07143000      0.05330000
Si             -4.55227352     -7.27382016     -7.30315336      14     -0.41643100     -0.66538800     -0.66798300      0.00185000     -0.05746000      0.05812000
Si             -4.56830020     -7.29223273     -1.83869512      14     -0.41796100     -0.66713300     -0.16807600      0.03255000      0.07071000     -0.08182000
Si             -4.53316807     -1.82436614     -7.30124607      14     -0.41463700     -0.16685600     -0.66786900     -0.04068000     -0.10836000     -0.02894000
Si             -4.55225933     -1.82687612     -1.85578431      14     -0.41644700     -0.16714600     -0.16970000      0.00384000     -0.03919000      0.01243000
Si              0.90909982     -7.22679028     -7.23683345      14      0.08319000     -0.66104000     -0.66198000      0.06510000      0.04099000     -0.02932000
Si              0.93853624     -7.26500339     -1.86498982      14      0.08582000     -0.66459500     -0.17054600     -0.02713000     -0.05146000     -0.01956000
Si              0.95719305     -1.84011153     -7.29078725      14      0.08763600     -0.16825000     -0.66697600     -0.06676000     -0.05458000      0.07004000
Si              0.90308613     -1.88674309     -1.90560859      14      0.08262300     -0.17257600     -0.17432100      0.12916000     -0.06941000     -0.00681000
Si             -7.27452526     -4.55299353     -7.30034012      14     -0.66544700     -0.41650200     -0.66772400     -0.07368000      0.02131000     -0.02653000
Si             -7.29216027     -4.56512147     -1.84286621      14     -0.66712400     -0.41767200     -0.16845600      0.09977000     -0.02928000     -0.05635000
Si             -7.22373439      0.90102312     -7.23773956      14     -0.66075500      0.08244700     -0.66205800     -0.02194000      0.13724000     -0.02435000
Si             -7.26829710      0.93789095     -1.86643191      14     -0.66489400      0.08576000     -0.17067300      0.03534000     -0.04195000      0.01889000
Si             -1.82868016     -4.53176753     -7.30140373      14     -0.16724600     -0.41451400     -0.66788500     -0.05280000     -0.05866000     -0.01539000
Si             -1.82989677     -4.55540836     -1.85232410      14     -0.16742100     -0.41673700     -0.16938500      0.02708000      0.01356000     -0.06793000
Si             -1.83738530      0.95368607     -7.28955939      14     -0.16799600      0.08731100     -0.66686200     -0.09653000      0.00872000      0.05914000
Si             -1.88937160      0.90810379     -1.90360423      14     -0.17281500      0.08308100     -0.17413600     -0.01183000      0.05294000     -0.05538000
Si             -3.18472723     -3.18730234     -3.22504103      14     -0.29133700     -0.29157500     -0.29496500     -0.02044000     -0.00337000      0.00448000
Si             -3.19392221     -3.19539596      2.24538762      14     -0.29224200     -0.29237600      0.20548800     -0.05903000     -0.00551000      0.04181000
Si             -3.23253720      2.29997619     -3.24765583      14     -0.29566400      0.21041700     -0.29709400      0.03942000     -0.04615000      0.05901000
Si             -3.22009638      2.28974105      2.24723880      14     -0.29459000      0.20942000      0.20559700      0.05014000     -0.05141000     -0.00014000
Si              2.30542473     -3.23289338     -3.24791434      14      0.21091700     -0.29569900     -0.29712100     -0.18924000      0.04555000      0.03865000
Si              2.28565994     -3.21595135      2.24464026      14      0.20904500     -0.29421000      0.20535600      0.02351000     -0.03232000      0.01077000
Si              2.27425702      2.27272149     -3.21599025      14      0.20811200      0.20797000     -0.29426100     -0.02728000      0.00627000      0.06674000
Si              2.39138487      2.39211940      2.37794601      14      0.21876300      0.21883200      0.21748800     -0.01235000     -0.06709000     -0.06555000
Si             -5.93067101     -5.93391911     -3.20242895      14     -0.54256700     -0.54286700     -0.29283400      0.01571000      0.05080000      0.04796000
Si             -5.91830145     -5.91881933      2.26635468      14     -0.54149900     -0.54154600      0.20746800     -0.00350000      0.01024000     -0.10974000
Si             -5.91987695     -0.46202461     -3.21410719      14     -0.54153300     -0.04228200     -0.29396300     -0.00417000      0.04164000      0.06629000
Si             -5.90490138     -0.47161620      2.27135443      14     -0.54022700     -0.04322000      0.20786500     -0.03693000      0.02901000     -0.04733000
Si             -0.45914890     -5.92608712     -3.21297899      14     -0.04201700     -0.54210400     -0.29386300      0.01219000      0.09891000      0.06751000
Si             -0.47235677     -5.90200873      2.27146654      14     -0.04328900     -0.53996200      0.20787200      0.06126000     -0.09022000     -0.01940000
Si             -0.47715684     -0.47825002     -3.23233733      14     -0.04361800     -0.04372000     -0.29569400      0.06353000      0.11468000      0.10632000
Si             -0.54244250     -0.54069670      2.34197636      14     -0.04965600     -0.04949500      0.21426400      0.19045000      0.14865000     -0.17853000
Si             -3.18418688     -5.91160439     -5.94228179      14     -0.29127900     -0.54077200     -0.54351700      0.01503000      0.05291000     -0.02302000
Si             -3.22962617     -5.87945070     -0.50508300      14     -0.29549900     -0.53789100     -0.04610400     -0.01535000     -0.09352000      0.08169000
Si             -3.19948144     -0.45254900     -5.93407056      14     -0.29263200     -0.04136200     -0.54282600      0.00564000      0.07076000      0.03289000
Si             -3.21950217     -0.44350411     -0.48275945      14     -0.29452700     -0.04059500     -0.04412200      0.03963000     -0.02758000     -0.06141000
Si              2.30157218     -5.88009057     -5.89831445      14      0.21057300     -0.53784300     -0.53955900     -0.05147000     -0.07914000     -0.03099000
Si              2.27521177     -5.91622661     -0.47740862      14      0.20809800     -0.54120900     -0.04363600      0.00973000     -0.04373000      0.04061000
Si              2.28690123     -0.44878004     -5.90594546      14      0.20927700     -0.04097100     -0.54031700     -0.03070000      0.00625000     -0.07846000
Si              2.39197034     -0.57242165     -0.58891035      14      0.21882600     -0.05234000     -0.05389700     -0.04415000      0.03571000      0.04525000
Si             -5.90935822     -3.18961968     -5.94672693      14     -0.54056200     -0.29178000     -0.54392200      0.01244000      0.10945000      0.04142000
Si             -5.88435057     -3.22979136     -0.50380009      14     -0.53833800     -0.29551500     -0.04598500      0.01609000     -0.01164000      0.06225000
Si             -5.88230408      2.29866569     -5.90216134      14     -0.53804100      0.21030400     -0.53990600     -0.05098000     -0.02657000      0.02682000
Si             -5.91574784      2.27525507     -0.47238986      14     -0.54116400      0.20810200     -0.04317200     -0.03150000     -0.07529000     -0.00337000
Si             -0.45334268     -3.20044278     -5.93502577      14     -0.04143100     -0.29272400     -0.54291500      0.06306000      0.02615000      0.02666000
Si             -0.44746490     -3.22269576     -0.48372608      14     -0.04095700     -0.29482000     -0.04421200      0.00928000      0.06907000     -0.02171000
Si             -0.44332084      2.28377579     -5.90731837      14     -0.04046800      0.20898800     -0.54044100     -0.02658000     -0.00029000     -0.03320000
Si             -0.57589280      2.39334651     -0.59701881      14     -0.05265700      0.21895200     -0.05463700      0.06895000     -0.04282000      0.14553000
Si              0.05452800      0.05340256     -0.10097772      14      0.00499000      0.00488700     -0.00923900      0.16807000      0.18928000      0.38574000
Si              1.90816218      0.05430675      1.74684185      14      0.17454400      0.00496500      0.15978400     -0.39269000      0.17286000     -0.17272000
66
energy=-10764.14071406 enthalpy=-10764.14100000 calculate_stress=True cut_off_energy=250.0 elec_energy_tol=1e-07 fine_grid_scale=4.0 finite_basis_corr=automatic fix_occupancy=False max_scf_cycles=250 mix_history_length=20 mixing_scheme=pulay num_dump_cycles=0 opt_strategy=speed perc_extra_bands=200.0 smearing_width=0.05 spin_polarized=False task=GeometryOptimization xc_functional=PW91 castep_file_name=castep.castep virial="-1.34928485      -0.36379705       0.18420742      -0.36379705      -1.33651367       0.24249557       0.18420742       0.24249557      -1.35957780" cutoff=-1.00000000 nneightol=1.20000000 pbc="T T T" Lattice="10.97955790      -0.00648630       0.00891600      -0.00648630      10.97943120       0.00846050       0.00891600       0.00846050      10.97913490" Properties=species:S:1:pos:R:3:Z:I:1:frac_pos:R:3:force:R:3
Si             -4.58565337     -4.58562980     -4.59636962      14     -0.41756100     -0.41758100     -0.41798500      0.04854000      0.03701000     -0.01462000
Si             -4.57494689     -4.57786481      0.89715812      14     -0.41699200     -0.41725900      0.08237500     -0.02835000      0.01915000     -0.01905000
Si             -4.58436989      0.89963687     -4.59161212      14     -0.41714900      0.08201400     -0.41793700      0.00814000      0.06383000     -0.02888000
Si             -4.59440824      0.90906871      0.89762916      14     -0.41846900      0.08248700      0.08203400      0.04972000      0.04297000      0.02420000
Si              0.89881848     -4.58659956     -4.59514204      14      0.08195600     -0.41737400     -0.41827900      0.06017000      0.04294000      0.02787000
Si              0.91285034     -4.59906293      0.89540844      14      0.08282700     -0.41889400      0.08181100     -0.00165000      0.09374000      0.02733000
Si              0.90584735      0.90109388     -4.57131825      14      0.08289000      0.08244100     -0.41649500     -0.02035000      0.01004000     -0.06553000
Si              0.06000403      1.90615804      1.75319337      14      0.00543800      0.17349200      0.15954600      0.15768000     -0.33864000     -0.19882000
Si             -7.32164166     -7.31889525     -4.59324532      14     -0.66689800     -0.66667300     -0.41730600      0.05973000      0.01357000     -0.05389000
Si             -7.29228292     -7.29491525      0.85558114      14     -0.66462600     -0.66487000      0.07898000     -0.00267000      0.02883000      0.06484000
Si             -7.31367085     -1.83323576     -4.60074576      14     -0.66587600     -0.16704100     -0.41837500      0.04064000     -0.07150000     -0.04580000
Si             -7.25133394     -1.89677313      0.88707078      14     -0.66060800     -0.17321000      0.08146600     -0.02929000      0.05077000     -0.08512000
Si             -1.83279026     -7.31037673     -4.60021925      14     -0.16698100     -0.66560100     -0.41834800     -0.04036000     -0.04872000     -0.04038000
Si             -1.89660401     -7.25217704      0.88695188      14     -0.17319600     -0.66068900      0.08143500      0.05584000     -0.01674000     -0.08266000
Si             -1.84193951     -1.84077083     -4.62302892      14     -0.16751800     -0.16743100     -0.42080900      0.00824000     -0.01089000      0.01628000
Si             -1.84925304     -1.84626767      0.84414602      14     -0.16858900     -0.16831600      0.07715300      0.00224000     -0.03752000      0.03929000
Si             -4.57386642     -7.30972797     -7.34201110      14     -0.41643100     -0.66549700     -0.66787300      0.01031000     -0.02768000      0.02563000
Si             -4.58557462     -7.32207006     -1.85630128      14     -0.41790400     -0.66700700     -0.16822200      0.02752000      0.05883000     -0.06710000
Si             -4.55823694     -1.83723966     -7.33829482      14     -0.41471300     -0.16706500     -0.66792000     -0.02469000     -0.04054000     -0.02789000
Si             -4.57279920     -1.83471485     -1.86802347      14     -0.41644400     -0.16722000     -0.16967600      0.01301000     -0.01859000      0.00612000
Si              0.91297078     -7.26312817     -7.27331116      14      0.08329900     -0.66096200     -0.66202500      0.07357000      0.01732000     -0.04406000
Si              0.94451816     -7.29996159     -1.87770170      14      0.08577100     -0.66469400     -0.17058200     -0.01894000     -0.01847000     -0.00993000
Si              0.95598948     -1.85461866     -7.32200334      14      0.08751200     -0.16835200     -0.66684300     -0.04084000     -0.03076000      0.03337000
Si              0.90923324     -1.89832483     -1.91479200      14      0.08285100     -0.17271500     -0.17433700      0.11419000     -0.01197000      0.00513000
Si             -7.31111451     -4.57390326     -7.34101677      14     -0.66558800     -0.41646700     -0.66777200     -0.03144000      0.02498000     -0.02072000
Si             -7.32154356     -4.58354883     -1.86005779      14     -0.66694400     -0.41773100     -0.16855400      0.07484000     -0.00189000     -0.05014000
Si             -7.26167653      0.90654069     -7.27442240      14     -0.66079500      0.08268700     -0.66209500     -0.01578000      0.12723000     -0.03976000
Si             -7.30161664      0.94360824     -1.87864935      14     -0.66483000      0.08568200     -0.17063700      0.02723000     -0.02555000      0.00953000
Si             -1.84072765     -4.55689004     -7.33805207      14     -0.16735300     -0.41462300     -0.66790800     -0.00663000     -0.03506000     -0.02604000
Si             -1.83647898     -4.57566416     -1.86611304      14     -0.16737200     -0.41671700     -0.16951200      0.01972000      0.02523000     -0.03704000
Si             -1.85303127      0.95426158     -7.32109883      14     -0.16817800      0.08732800     -0.66675000     -0.05089000      0.00433000      0.02929000
Si             -1.89986564      0.91276234     -1.91385291      14     -0.17284600      0.08316600     -0.17424100      0.01992000      0.07204000     -0.02628000
Si             -3.19985240     -3.20194423     -3.24347036      14     -0.29137000     -0.29157600     -0.29496000     -0.02891000     -0.01649000      0.01290000
Si             -3.20605671     -3.20647584      2.25179081      14     -0.29234200     -0.29237500      0.20556000     -0.06215000     -0.03484000      0.04138000
Si             -3.24941591      2.30885107     -3.26154911      14     -0.29558600      0.21034300     -0.29699000      0.00895000     -0.06093000      0.05033000
Si             -3.23299351      2.30191906      2.25636754      14     -0.29449900      0.20932500      0.20559200      0.03690000     -0.03243000      0.01384000