66
energy=-10764.04235300 enthalpy=-10764.04240000 calculate_stress=True cut_off_energy=250.0 elec_energy_tol=1e-07 fine_grid_scale=4.0 finite_basis_corr=automatic fix_occupancy=False max_scf_cycles=250 mix_history_length=20 mixing_scheme=pulay num_dump_cycles=0 opt_strategy=speed perc_extra_bands=200.0 smearing_width=0.05 spin_polarized=False task=GeometryOptimization xc_functional=PW91 kpoints_mp_grid="4       4       4" castep_file_name=castep.castep virial="10.01533966      -1.34807821      -1.66316353      -1.34807821      10.03517379      -1.31013395      -1.66316353      -1.31013395       9.93727175" cutoff=-1.00000000 nneightol=1.20000000 pbc="T T T" Lattice="10.92204330       0.00000000       0.00000000       0.00000000      10.92204330       0.00000000       0.00000000       0.00000000      10.92204330" Properties=species:S:1:pos:R:3:Z:I:1:frac_pos:R:3:force:R:3
Si             -5.60127161     -3.94927979     -2.99851592      14     -0.51284100     -0.36158800     -0.27453800     -0.00157000     -0.03248000      0.06109000
Si             -5.61225918     -3.96690797      2.47056619      14     -0.51384700     -0.36320200      0.22620000      0.00195000      0.08803000      0.04636000
Si             -5.61608190      1.51074795     -3.00327793      14     -0.51419700      0.13832100     -0.27497400      0.06442000      0.08424000     -0.05096000
Si             -5.63284724      1.51115207      2.47412678      14     -0.51573200      0.13835800      0.22652600     -0.02094000      0.12286000     -0.02482000
Si             -0.18116393     -3.97940279     -3.01911490      14     -0.01658700     -0.36434600     -0.27642400      0.03174000      0.08203000      0.04651000
Si             -0.14674857     -4.01509603      2.53655718      14     -0.01343600     -0.36761400      0.23224200     -0.11278000     -0.04443000      0.00396000
Si              0.70203618     -0.36646732     -1.25620973      14      0.06427700     -0.03355300     -0.11501600     -0.16983000     -0.18679000      0.38911000
Si             -0.19268669      1.52414930      2.48324669      14     -0.01764200      0.13954800      0.22736100     -0.06516000      0.04946000      0.07521000
Si             -2.87852636     -6.66962220     -2.99762032      14     -0.26355200     -0.61065700     -0.27445600     -0.06662000     -0.02599000      0.01782000
Si             -2.89274686     -6.68012920      2.46818519      14     -0.26485400     -0.61161900      0.22598200      0.02273000     -0.09118000      0.03178000
Si             -2.89879767     -1.24605223     -3.01497544      14     -0.26540800     -0.11408600     -0.27604500     -0.00223000      0.00527000      0.03703000
Si             -2.94327223     -1.21569987      2.53877435      14     -0.26948000     -0.11130700      0.23244500     -0.03276000     -0.13476000     -0.07684000
Si              2.58404622     -6.68092651     -3.00799626      14      0.23659000     -0.61169200     -0.27540600      0.03995000     -0.05228000      0.04422000
Si              2.58581560     -6.70933474      2.46657965      14      0.23675200     -0.61429300      0.22583500      0.04385000      0.03681000      0.09448000
Si              2.64915252     -1.21906386     -3.05595495      14      0.24255100     -0.11161500     -0.27979700      0.00865000     -0.09776000     -0.04831000
Si              2.59576558     -1.27048484      2.48652330      14      0.23766300     -0.11632300      0.22766100      0.03293000      0.08915000      0.04649000
Si             -5.60212353     -6.67464634     -5.71984131      14     -0.51291900     -0.61111700     -0.52369700     -0.03293000     -0.04688000      0.01153000
Si             -5.60801051     -6.67899331     -0.25202615      14     -0.51345800     -0.61151500     -0.02307500      0.09141000      0.00504000     -0.03939000
Si             -5.60404581     -1.21394142     -5.72032188      14     -0.51309500     -0.11114600     -0.52374100     -0.01089000      0.06517000      0.02377000
Si             -5.58506330     -1.21351546     -0.25616560      14     -0.51135700     -0.11110700     -0.02345400     -0.14764000      0.00424000      0.02161000
Si             -0.13928882     -6.68242283     -5.71592030      14     -0.01275300     -0.61182900     -0.52333800     -0.00428000      0.02591000     -0.03760000
Si             -0.14173536     -6.65760795     -0.25694107      14     -0.01297700     -0.60955700     -0.02352500      0.01503000     -0.10334000      0.00523000
Si             -0.14573282     -1.21975195     -5.70331626      14     -0.01334300     -0.11167800     -0.52218400      0.01217000      0.06867000     -0.03040000
Si             -1.14996009     -0.36938350      0.59450866      14     -0.10528800     -0.03382000      0.05443200      0.40089000     -0.18663000     -0.18098000
Si             -2.88071076     -3.95593132     -5.71113644      14     -0.26375200     -0.36219700     -0.52290000     -0.01274000      0.02059000     -0.05093000
Si             -2.90109130     -3.97359226     -0.29605291      14     -0.26561800     -0.36381400     -0.02710600     -0.01956000     -0.02577000      0.07626000
Si             -2.89627468      1.51094455     -5.72916874      14     -0.26517700      0.13833900     -0.52455100      0.04314000      0.06438000     -0.00528000
Si             -2.94759736      1.57538460     -0.26158294      14     -0.26987600      0.14423900     -0.02395000      0.03933000      0.01145000     -0.03664000
Si              2.57953542     -3.96419930     -5.72462517      14      0.23617700     -0.36295400     -0.52413500      0.07480000      0.00037000     -0.06881000
Si              2.64645478     -4.01469191     -0.25612192      14      0.24230400     -0.36757700     -0.02345000     -0.00673000     -0.02070000     -0.16098000
Si              2.58807646      1.51222243     -5.74944005      14      0.23695900      0.13845600     -0.52640700     -0.00108000      0.03328000      0.01129000
Si              2.60277753      1.52355951     -0.30902829      14      0.23830500      0.13949400     -0.02829400     -0.00312000      0.08046000      0.03009000
Si             -4.28289361     -2.60863174     -7.04586474      14     -0.39213300     -0.23884100     -0.64510500      0.02833000     -0.02974000     -0.06146000
Si             -4.25184224     -2.58292125     -1.62373649      14     -0.38929000     -0.23648700     -0.14866600      0.02647000      0.00736000     -0.07134000
Si             -4.26014299      2.86911155     -7.09740587      14     -0.39005000      0.26269000     -0.64982400      0.00920000      0.03231000      0.00531000
Si             -4.28102594      2.91323661     -1.65443835      14     -0.39196200      0.26673000     -0.15147700     -0.02754000      0.02516000      0.03639000
Si              1.19788602     -2.59571097     -7.05672125      14      0.10967600     -0.23765800     -0.64609900      0.06956000     -0.01465000     -0.06067000
Si              1.33025026     -2.70240841     -1.74991886      14      0.12179500     -0.24742700     -0.16021900     -0.06586000      0.02391000      0.10304000
Si              1.20743189      2.87686621     -7.08624354      14      0.11055000      0.26340000     -0.64880200      0.00663000      0.07001000      0.07229000
Si              1.20247328      2.90220535     -1.63774947      14      0.11009600      0.26572000     -0.14994900      0.03610000     -0.03181000     -0.02779000
Si             -6.97867233     -5.33137700     -7.09483919      14     -0.63895300     -0.48813000     -0.64958900     -0.06544000     -0.02642000      0.00036000
Si             -6.93217719     -5.35859473     -1.65164231      14     -0.63469600     -0.49062200     -0.15122100     -0.06481000      0.09057000      0.02607000
Si             -6.96460474      0.14032641     -7.08483459      14     -0.63766500      0.01284800     -0.64867300     -0.01382000     -0.11453000      0.06456000
Si             -6.94410407      0.13470156     -1.64125545      14     -0.63578800      0.01233300     -0.15027000     -0.04300000     -0.06213000      0.06219000
Si             -1.54244372     -5.35992722     -7.05056122      14     -0.14122300     -0.49074400     -0.64553500      0.10356000      0.04624000      0.03162000
Si             -1.51328187     -5.32657130     -1.62681651      14     -0.13855300     -0.48769000     -0.14894800      0.01189000      0.03066000     -0.00318000
Si             -1.52736038      0.12750393     -7.05832679      14     -0.13984200      0.01167400     -0.64624600      0.06746000      0.08142000     -0.03812000
Si             -1.63085766      0.26681460     -1.74505855      14     -0.14931800      0.02442900     -0.15977400      0.04796000     -0.11142000      0.06881000
Si             -4.23756713     -5.30502211     -4.34932147      14     -0.38798300     -0.48571700     -0.39821500     -0.03418000     -0.07285000     -0.03674000
Si             -4.24674164     -5.31887126      1.10432780      14     -0.38882300     -0.48698500      0.10111000     -0.01862000      0.00872000     -0.05779000
Si             -4.24180488      0.14740390     -4.35916223      14     -0.38837100      0.01349600     -0.39911600     -0.10161000     -0.03322000     -0.01204000
Si             -4.26913183      0.16291320      1.12195598      14     -0.39087300      0.01491600      0.10272400      0.13824000     -0.08698000     -0.06900000
Si              1.21729449     -5.31325733     -4.35817925      14      0.11145300     -0.48647100     -0.39902600     -0.02142000     -0.10001000     -0.04795000
Si              1.23175528     -5.33685986      1.12193413      14      0.11277700     -0.48863200      0.10272200     -0.05432000      0.08737000     -0.06890000
Si              1.23243244      0.15941814     -4.37942262      14      0.11283900      0.01459600     -0.40097100     -0.05007000     -0.08091000      0.05120000
Si              1.29350851      0.22883865      1.18528198      14      0.11843100      0.02095200      0.10852200     -0.09272000     -0.21937000     -0.19079000
Si             -6.93571594     -2.61527235     -4.40387708      14     -0.63502000     -0.23944900     -0.40321000     -0.04869000      0.11079000      0.06854000
Si             -6.95032963     -2.59554714      1.09098106      14     -0.63635800     -0.23764300      0.09988800      0.03237000      0.00556000      0.01413000
Si             -6.98154483      2.86782275     -4.37476983      14     -0.63921600      0.26257200     -0.40054500      0.01797000      0.04409000     -0.00189000
Si             -6.96595907      2.88429319      1.09031482      14     -0.63778900      0.26408000      0.09982700      0.02096000     -0.05087000      0.03313000
Si             -1.51480003     -2.58499644     -4.36643631      14     -0.13869200     -0.23667700     -0.39978200      0.00325000     -0.02128000      0.03995000
Si             -1.63388307     -2.70979171      1.21998131      14     -0.14959500     -0.24810300      0.11169900      0.05203000      0.11022000     -0.04803000
Si             -1.54562204      2.91235192     -4.39712726      14     -0.14151400      0.26664900     -0.40259200      0.08612000     -0.02569000     -0.01487000
Si             -1.52106928      2.90483756      1.08779182      14     -0.13926600      0.26596100      0.09959600     -0.03797000     -0.04052000      0.03149000
Si             -0.14987228      1.57253395     -3.06228973      14     -0.01372200      0.14397800     -0.28037700     -0.05131000      0.05249000      0.03026000
Si              0.70261505     -2.22220985      0.59355844      14      0.06433000     -0.20346100      0.05434500     -0.17883000      0.40710000     -0.19069000
66
energy=-10764.07026928 calculate_stress=True cut_off_energy=250.0 elec_energy_tol=1e-07 fine_grid_scale=4.0 finite_basis_corr=automatic fix_occupancy=False max_scf_cycles=250 mix_history_length=20 mixing_scheme=pulay num_dump_cycles=0 opt_strategy=speed perc_extra_bands=200.0 smearing_width=0.05 spin_polarized=False task=GeometryOptimization xc_functional=PW91 castep_file_name=castep.castep virial="8.20941491      -1.16904107      -1.42408709      -1.16904107       8.22853970      -1.14907662      -1.42408709      -1.14907662       8.13819018" cutoff=-1.00000000 nneightol=1.20000000 pbc="T T T" Lattice="10.93101090      -0.00120710      -0.00148920      -0.00120710      10.93102870      -0.00117310      -0.00148920      -0.00117310      10.93094100" Properties=species:S:1:pos:R:3:Z:I:1:frac_pos:R:3:force:R:3
Si             -5.60502526     -3.95169703     -2.99956308      14     -0.51284100     -0.36159800     -0.27451900     -0.00306000     -0.03412000      0.05297000
Si             -5.61675472     -3.96951053      2.47392315      14     -0.51384600     -0.36317400      0.22621400     -0.00109000      0.07908000      0.04187000
Si             -5.62023188      1.51322921     -3.00529605      14     -0.51417700      0.13834800     -0.27499000      0.05703000      0.07653000     -0.04798000
Si             -5.63804209      1.51317840      2.47666058      14     -0.51573800      0.13839700      0.22651800     -0.01828000      0.10858000     -0.02528000
Si             -0.18035197     -3.98204811     -3.02095840      14     -0.01657700     -0.36432000     -0.27640900      0.03121000      0.07431000      0.04198000
Si             -0.14716467     -4.01881933      2.53908586      14     -0.01347200     -0.36762900      0.23224300     -0.11132000     -0.04099000     -0.00100000
Si              0.70223398     -0.36736741     -1.25593388      14      0.06422300     -0.03361300     -0.11489200     -0.17016000     -0.18716000      0.38176000
Si             -0.19358153      1.52532173      2.48539460      14     -0.01766300      0.13956300      0.22738500     -0.05858000      0.04488000      0.06759000
Si             -2.87997349     -6.67455652     -2.99888787      14     -0.26357300     -0.61066500     -0.27445000     -0.06495000     -0.02740000      0.01344000
Si             -2.89464367     -6.68588726      2.47141715      14     -0.26484700     -0.61164800      0.22599200      0.02043000     -0.08635000      0.02879000
Si             -2.90063989     -1.24641129     -3.01678229      14     -0.26540900     -0.11408400     -0.27603400     -0.00467000      0.00419000      0.03141000
Si             -2.94600984     -1.21711740      2.54111219      14     -0.26949000     -0.11135000      0.23242100     -0.02920000     -0.13259000     -0.07513000
Si              2.58745848     -6.68657118     -3.00992846      14      0.23660300     -0.61170900     -0.27539200      0.03655000     -0.05153000      0.04038000
Si              2.58849687     -6.71528493      2.46928501      14      0.23676600     -0.61428200      0.22586500      0.03738000      0.03496000      0.08501000
Si              2.65191188     -1.22037017     -3.05884963      14      0.24255400     -0.11164600     -0.27981300      0.00235000     -0.09775000     -0.04400000
Si              2.59781841     -1.27177796      2.48848447      14      0.23767400     -0.11629500      0.22767500      0.03056000      0.08256000      0.04096000
Si             -5.60531491     -6.67905700     -5.72297651      14     -0.51292900     -0.61113100     -0.52369300     -0.03471000     -0.04690000      0.00701000
Si             -5.61152546     -6.68381931     -0.25089160      14     -0.51342900     -0.61151300     -0.02308800      0.08143000      0.00322000     -0.04198000
Si             -5.60776575     -1.21347681     -5.72401099      14     -0.51309800     -0.11112500     -0.52373400     -0.01149000      0.05341000      0.01996000
Si             -5.58999366     -1.21385805     -0.25541678      14     -0.51140400     -0.11110600     -0.02344800     -0.14101000     -0.00031000      0.01732000
Si             -0.13790714     -6.68720357     -5.71997125      14     -0.01275500     -0.61182100     -0.52335000     -0.00895000      0.02209000     -0.03741000
Si             -0.14102621     -6.66339160     -0.25639410      14     -0.01297200     -0.60958900     -0.02352300      0.01138000     -0.10262000      0.00211000
Si             -0.14489632     -1.21988625     -5.70792096      14     -0.01333900     -0.11165600     -0.52219400      0.00925000      0.06049000     -0.03286000
Si             -1.14955611     -0.37028010      0.59455534      14     -0.10516100     -0.03388000      0.05437400      0.39417000     -0.18614000     -0.18108000
Si             -2.88190378     -3.95818840     -5.71514627      14     -0.26375600     -0.36219100     -0.52291600     -0.01516000      0.01518000     -0.04898000
Si             -2.90305934     -3.97659632     -0.29520938      14     -0.26562400     -0.36382200     -0.02708200     -0.02004000     -0.02549000      0.07117000
Si             -2.89789642      1.51334163     -5.73362532      14     -0.26516400      0.13835900     -0.52455300      0.03891000      0.05739000     -0.00625000
Si             -2.95002476      1.57707824     -0.26169454      14     -0.26986400      0.14424300     -0.02396200      0.03765000      0.00663000     -0.04110000
Si              2.58313440     -3.96713082     -5.72945521      14      0.23620100     -0.36295400     -0.52415700      0.06919000     -0.00164000     -0.06559000
Si              2.64908451     -4.01833617     -0.25682860      14      0.24230200     -0.36758400     -0.02350200     -0.01010000     -0.01857000     -0.15597000
Si              2.59080726      1.51391824     -5.75460638      14      0.23695800      0.13846700     -0.52640400     -0.00400000      0.02720000      0.01209000
Si              2.60477733      1.52483172     -0.30970022      14      0.23830400      0.13951900     -0.02828500     -0.00486000      0.07341000      0.02808000
Si             -4.28506268     -2.60965701     -7.05094823      14     -0.39212400     -0.23885100     -0.64512400      0.02849000     -0.02107000     -0.05470000
Si             -4.25473890     -2.58437999     -1.62445355      14     -0.38928200     -0.23648500     -0.14868900      0.02599000      0.00926000     -0.06313000
Si             -4.26295740      2.87282530     -7.10289326      14     -0.39004700      0.26270100     -0.64982200      0.01033000      0.03338000      0.00836000
Si             -4.28473569      2.91637157     -1.65538417      14     -0.39197100      0.26673800     -0.15146500     -0.02196000      0.02522000      0.03929000
Si              1.20035911     -2.59726460     -7.06256230      14      0.10969800     -0.23766200     -0.64611800      0.06772000     -0.01265000     -0.05782000
Si              1.33165013     -2.70450327     -1.75087481      14      0.12177400     -0.24741900     -0.16018600     -0.05716000      0.02908000      0.10218000
Si              1.20909330      2.88011201     -7.09223863      14      0.11055200      0.26342300     -0.64877900      0.00910000      0.06979000      0.07111000
Si              1.20349433      2.90452664     -1.63965773      14      0.11010800      0.26571000     -0.14995800      0.03694000     -0.02911000     -0.02538000
Si             -6.98307516     -5.33432808     -7.09909484      14     -0.63897400     -0.48813900     -0.64958900     -0.05693000     -0.02179000      0.00262000
Si             -6.93728106     -5.36174261     -1.65137965      14     -0.63471700     -0.49059300     -0.15121300     -0.05855000      0.08729000      0.02957000
Si             -6.96942721      0.14157900     -7.08944215      14     -0.63767000      0.01281200     -0.64865200     -0.00982000     -0.10164000      0.06313000
Si             -6.94973877      0.13553749     -1.64144149      14     -0.63580100      0.01231300     -0.15025000     -0.04107000     -0.05312000      0.05733000
Si             -1.54179576     -5.36324509     -7.05539882      14     -0.14119000     -0.49072900     -0.64552400      0.10082000      0.04634000      0.03168000
Si             -1.51367014     -5.33050210     -1.62737431      14     -0.13854900     -0.48768000     -0.14894900      0.01283000      0.03134000     -0.00079000
Si             -1.52742566      0.12881994     -7.06401357      14     -0.13982000      0.01170000     -0.64625800      0.06158000      0.07891000     -0.03656000
Si             -1.63182426      0.26700821     -1.74605689      14     -0.14930300      0.02439300     -0.15975300      0.05061000     -0.10050000      0.07024000
Si             -4.23998727     -5.30871330     -4.35184822      14     -0.38799400     -0.48574100     -0.39822700     -0.03138000     -0.06651000     -0.03386000
Si             -4.24985675     -5.32286345      1.10617008      14     -0.38882900     -0.48698200      0.10109100     -0.01571000      0.01001000     -0.04892000
Si             -4.24507027      0.14834197     -4.36219458      14     -0.38840400      0.01348500     -0.39912000     -0.09227000     -0.02709000     -0.01011000
Si             -4.27232697      0.16309245      1.12319406      14     -0.39082900      0.01488800      0.10270200      0.13236000     -0.07930000     -0.06400000
Si              1.21939895     -5.31764467     -4.36148888      14      0.11144600     -0.48650300     -0.39904100     -0.01694000     -0.09190000     -0.04327000
Si              1.23301764     -5.34121187      1.12301290      14      0.11276000     -0.48860500      0.10270000     -0.04902000      0.08550000     -0.06394000
Si              1.23384896      0.15959926     -4.38300056      14      0.11282300      0.01457000     -0.40095500     -0.04550000     -0.07284000      0.05278000
Si              1.29406683      0.22799158      1.18537997      14      0.11840200      0.02088200      0.10846100     -0.09131000     -0.20779000     -0.18192000
Si             -6.94068508     -2.61580177     -4.40599769      14     -0.63503500     -0.23941400     -0.40318800     -0.04208000      0.10851000      0.06790000
Si             -6.95577790     -2.59700964      1.09315091      14     -0.63634700     -0.23764100      0.09989300      0.02856000      0.00575000      0.01633000
Si             -6.98693195      2.87157657     -4.37770082      14     -0.63921000      0.26258600     -0.40054600      0.01892000      0.04387000      0.00057000
Si             -6.97206942      2.88714391      1.09196330      14     -0.63778200      0.26406400      0.09983800      0.02215000     -0.04156000      0.03331000
Si             -1.51515180     -2.58656321     -4.36936716      14     -0.13869100     -0.23668400     -0.39976900      0.00473000     -0.01640000      0.03907000
Si             -1.63490562     -2.71158889      1.22131404      14     -0.14957800     -0.24806800      0.11168300      0.05426000      0.10867000     -0.04165000
Si             -1.54630732      2.91530350     -4.40086615      14     -0.14148600      0.26664100     -0.40259700      0.08624000     -0.01971000     -0.01054000
Si             -1.52291870      2.90713650      1.08868274      14     -0.13927800      0.26594800      0.09960600     -0.03540000     -0.03806000      0.03248000
Si             -0.14992652      1.57434803     -3.06482360      14     -0.01373800      0.14399400     -0.28036700     -0.05313000      0.04402000      0.02938000
Si              0.70273346     -2.22275826      0.59351801      14      0.06427300     -0.20333100      0.05428400     -0.17926000      0.39955000     -0.19004000
66
energy=-10764.14053482 enthalpy=-10764.14090000 calculate_stress=True cut_off_energy=250.0 elec_energy_tol=1e-07 fine_grid_scale=4.0 finite_basis_corr=automatic fix_occupancy=False max_scf_cycles=250 mix_history_length=20 mixing_scheme=pulay num_dump_cycles=0 opt_strategy=speed perc_extra_bands=200.0 smearing_width=0.05 spin_polarized=False task=GeometryOptimization xc_functional=PW91 castep_file_name=castep.castep virial="-1.30314934      -0.23345191      -0.18028878      -0.23345191      -1.29118846      -0.30428377      -0.18028878      -0.30428377      -1.33913936" cutoff=-1.00000000 nneightol=1.20000000 pbc="T T T" Lattice="10.97925680      -0.00770100      -0.00950100      -0.00770100      10.97937010      -0.00748420      -0.00950100      -0.00748420      10.97881080" Properties=species:S:1:pos:R:3:Z:I:1:frac_pos:R:3:force:R:3
Si             -5.62525367     -3.96472993     -3.00516017      14     -0.51284400     -0.36165400     -0.27441400     -0.01058000     -0.04202000      0.01127000
Si             -5.64096863     -3.98350040      2.49203797      14     -0.51384300     -0.36302300      0.22629400     -0.01684000      0.03297000      0.01856000
Si             -5.64251565      1.52658346     -3.01617071      14     -0.51406600      0.13849300     -0.27507700      0.01908000      0.03711000     -0.03260000
Si             -5.66603436      1.52409454      2.49030016      14     -0.51577400      0.13860700      0.22647600     -0.00408000      0.03539000     -0.02701000
Si             -0.17596934     -3.99626069     -3.03088125      14     -0.01652200     -0.36417900     -0.27632900      0.02830000      0.03451000      0.01889000
Si             -0.14940646     -4.03880225      2.55271062      14     -0.01366500     -0.36770500      0.23225000     -0.10337000     -0.02255000     -0.02623000
Si              0.70327242     -0.37220042     -1.25440812      14      0.06393200     -0.03393300     -0.11422500     -0.17215000     -0.18923000      0.34335000
Si             -0.19839333      1.53168120      2.49695689      14     -0.01777500      0.13964800      0.22751400     -0.02534000      0.02213000      0.02908000
Si             -2.88777695     -6.70112665     -3.00572929      14     -0.26368700     -0.61071000     -0.27442000     -0.05598000     -0.03398000     -0.00887000
Si             -2.90483120     -6.71687504      2.48882205      14     -0.26480800     -0.61180400      0.22604700      0.00891000     -0.06101000      0.01368000
Si             -2.91052602     -1.24836229     -3.02644698      14     -0.26541200     -0.11407500     -0.27597000     -0.01719000     -0.00130000      0.00264000
Si             -2.96076245     -1.22475182      2.55365303      14     -0.26954600     -0.11158100      0.23228900     -0.01023000     -0.12101000     -0.06600000
Si              2.60580990     -6.71691876     -3.02031208      14      0.23667200     -0.61179800     -0.27531600      0.01918000     -0.04725000      0.02057000
Si              2.60292078     -6.74725327      2.48385438      14      0.23684100     -0.61421900      0.22602700      0.00416000      0.02553000      0.03644000
Si              2.66674771     -1.22740954     -3.07439304      14      0.24256900     -0.11181300     -0.27989600     -0.02994000     -0.09734000     -0.02120000
Si              2.60882923     -1.27870132      2.49908961      14      0.23773000     -0.11614200      0.22775500      0.01853000      0.04806000      0.01270000
Si             -5.62252267     -6.70285298     -5.73985848      14     -0.51298600     -0.61121200     -0.52367300     -0.04356000     -0.04653000     -0.01601000
Si             -5.63041591     -6.70980273     -0.24476115      14     -0.51327200     -0.61150400     -0.02315500      0.03007000     -0.00574000     -0.05505000
Si             -5.62781279     -1.21099286     -5.74382039      14     -0.51311700     -0.11101400     -0.52369300     -0.01484000     -0.00698000      0.00063000
Si             -5.61653560     -1.21567058     -0.25133221      14     -0.51165700     -0.11109800     -0.02341100     -0.10606000     -0.02330000     -0.00446000
Si             -0.13043302     -6.71289950     -5.74177435      14     -0.01276200     -0.61177600     -0.52341500     -0.03266000      0.00258000     -0.03613000
Si             -0.13721824     -6.69458189     -0.25346914      14     -0.01294600     -0.60976700     -0.02351400     -0.00717000     -0.09804000     -0.01377000
Si             -0.14041191     -1.22060582     -5.73267871      14     -0.01331900     -0.11153800     -0.52224600     -0.00552000      0.01865000     -0.04525000
Si             -1.14728618     -0.37509454      0.59480698      14     -0.10447300     -0.03420000      0.05406400      0.35920000     -0.18374000     -0.18196000
Si             -2.88832839     -3.97029914     -5.73673438      14     -0.26377800     -0.36215600     -0.52300300     -0.02720000     -0.01251000     -0.03857000
Si             -2.91366921     -3.99277194     -0.29064267      14     -0.26565800     -0.36386600     -0.02695100     -0.02214000     -0.02357000      0.04497000
Si             -2.90657368      1.52628076     -5.75758467      14     -0.26509000      0.13847000     -0.52456200      0.01740000      0.02167000     -0.01138000
Si             -2.96304228      1.58616339     -0.26227130      14     -0.26979600      0.14426200     -0.02402400      0.02914000     -0.01813000     -0.06400000
Si              2.60250400     -3.98289151     -5.75544499      14      0.23633000     -0.36295300     -0.52427500      0.04034000     -0.01155000     -0.04884000
Si              2.66323207     -4.03792396     -0.26060483      14      0.24229100     -0.36762000     -0.02377800     -0.02725000     -0.00701000     -0.12976000
Si              2.60553518      1.52302103     -5.78235840      14      0.23695600      0.13852400     -0.52638400     -0.01871000     -0.00380000      0.01670000
Si              2.61552768      1.53172206     -0.31327406      14      0.23829800      0.13965700     -0.02823300     -0.01344000      0.03705000      0.01745000
Si             -4.29672200     -2.61514508     -7.07834500      14     -0.39207500     -0.23890200     -0.64523000      0.02942000      0.02343000     -0.02023000
Si             -4.27029805     -2.59220236     -1.62829987      14     -0.38923700     -0.23647200     -0.14881100      0.02309000      0.01846000     -0.02089000
Si             -4.27810012      2.89276233     -7.13243482      14     -0.39003100      0.26275600     -0.64981300      0.01587000      0.03861000      0.02388000
Si             -4.30468229      2.93323940     -1.66049697      14     -0.39201800      0.26678100     -0.15140300      0.00693000      0.02523000      0.05382000