66
Lattice="10.88 0.0 0.0 0.0 10.88 0.0 0.0 0.0 10.88" Properties=species:S:1:pos:R:3:Z:I:1:forces:R:3 cutoff=-1.0 energy=-10762.8550943 nneightol=1.2 pbc="T T T"
Si     -3.38852903      -6.08811385      -6.11265133       14      -0.00246006      -0.00053211       0.00418386 
Si     -3.47527682      -6.06973588      -0.64204781       14       0.00037969      -0.00386797      -0.00131429 
Si     -3.40296702      -0.68921645      -6.08662378       14       0.00271427      -0.00131053       0.00039046 
Si     -3.49820929      -0.60810954      -0.73502768       14       0.00084866       0.00234106       0.00290455 
Si      2.07203984      -6.17887299      -6.11859147       14      -0.00159960      -0.00206480      -0.00117779 
Si      2.04143273      -6.10789325      -0.66487535       14       0.00149856       0.00306488       0.00013989 
Si      2.07728175      -0.67796794      -6.09126653       14      -0.00167133       0.00053998       0.00302238 
Si      2.43949357      -1.24601883      -0.28145806       14       0.00187231      -0.00491274      -0.00730792 
Si     -6.03926191      -3.44148613      -6.04151916       14       0.00245090       0.00161628      -0.00272354 
Si     -6.06219649      -3.38423340      -0.68502261       14       0.00064937      -0.00285944      -0.00152473 
Si     -6.14915322       2.04825344      -6.16843090       14       0.00084020      -0.00019026       0.00034318 
Si     -6.13115619       2.01401709      -0.68248630       14      -0.00040959      -0.00262145       0.00017324 
Si     -0.66075801      -3.39343103      -6.04937387       14       0.00102795       0.00256451       0.00094990 
Si     -0.61030952      -3.44338772      -0.64074011       14       0.00032274      -0.00052009      -0.00036980 
Si     -0.67402811       1.99436509      -6.13467171       14      -0.00008695      -0.00057738      -0.00240078 
Si     -0.88722935       2.53231711      -0.90835998       14       0.00205882       0.00410502      -0.00195955 
Si     -3.30488777      -3.33911154      -3.31241196       14      -0.00233695      -0.00049237       0.00243697 
Si     -3.38981247      -3.43145700       2.01762365       14      -0.00180847      -0.00361678       0.00109783 
Si     -3.46013987       2.06951139      -3.50046376       14      -0.00114168       0.00051585      -0.00214891 
Si     -3.44309982       2.12250523       2.14118999       14      -0.00216148       0.00312275       0.00053994 
Si      2.02496523      -3.43681804      -3.42520072       14      -0.00035579      -0.00322756      -0.00170729 
Si      2.29883888      -3.68709332       2.29585813       14      -0.00026783       0.00243918      -0.00175886 
Si      2.12897551       2.14247997      -3.48736123       14       0.00371605       0.00331057       0.00031824 
Si      1.97156294       1.95229547       1.92800727       14       0.00137717      -0.00129465       0.00259732 
Si     -6.09470477      -6.10409246      -3.36193816       14      -0.00083738       0.00299010      -0.00135916 
Si     -6.12962440      -6.17281943       2.04915481       14       0.00009492       0.00101718      -0.00228977 
Si     -6.12581050      -0.67374968      -3.43177219       14      -0.00170248       0.00187962       0.00030621 
Si     -6.04619680      -0.73053733       2.14315572       14       0.00005554       0.00035088       0.00261316 
Si     -0.65849516      -6.06554218      -3.49952704       14      -0.00299223      -0.00048234       0.00108452 
Si     -0.65990134      -6.09224373       2.07285329       14      -0.00073423       0.00185150       0.00068071 
Si     -0.68861111      -0.63725131      -3.39846450       14       0.00173276      -0.00013191      -0.00057401 
Si     -0.36626282      -1.15451828       2.38222581       14      -0.00465752       0.00107941      -0.00056804 
Si     -2.04807809      -4.70615647      -4.74604233       14       0.00099651       0.00120937       0.00045925 
Si     -2.01828628      -4.77749857       0.68065901       14      -0.00078299      -0.00030900      -0.00354197 
Si     -2.05392176       0.67270012      -4.77417842       14      -0.00043269       0.00070590       0.00017662 
Si     -2.41616750       1.24074871       0.29652573       14       0.00275062       0.00035281       0.00425183 
Si      3.41232519      -4.79698814      -4.75159795       14       0.00011566       0.00044102      -0.00504673 
Si      3.49847825      -4.81438856       0.65660229       14       0.00072157       0.00207580       0.00419053 
Si      3.42597435       0.68429351      -4.77882679       14      -0.00022170       0.00218710       0.00034388 
Si      3.52155395       0.60265904       0.75051944       14       0.00045334       0.00113832      -0.00439742 
Si     -4.70741888      -2.05291041      -4.69659815       14       0.00043574       0.00102295       0.00083329 
Si     -4.72504346      -2.01826465       0.69860793       14      -0.00177726      -0.00013496      -0.00143477 
Si     -4.81715233       3.43634519      -4.82268007       14      -0.00089757      -0.00276442       0.00190828 
Si     -4.79378971       3.38048482       0.70077178       14      -0.00368571       0.00122263      -0.00135047 
Si      0.69749165      -1.99946692      -4.73021303       14       0.00088668       0.00008357       0.00213920 
Si      0.91089823      -2.53819429       0.92337967       14      -0.00235264      -0.00352867       0.00180566 
Si      0.68451993       3.38803492      -4.81573621       14      -0.00099643      -0.00060175       0.00058193 
Si      0.63323363       3.43775717       0.65598315       14       0.00282911       0.00127217      -0.00014236 
Si     -1.94827708      -1.95726222      -1.91281690       14       0.00122935       0.00041846      -0.00220635 
Si     -2.10560641      -2.14773557       3.50269840       14       0.00063249      -0.00119350      -0.00249525 
Si     -2.27468977       3.68230994      -2.28007440       14      -0.00135301      -0.00203960      -0.00363054 
Si     -2.00090444       3.43233007       3.44073757       14      -0.00145919       0.00091784       0.00140674 
Si      3.46764543      -2.12677083      -2.12646349       14      -0.00250496      -0.00275363       0.00523227 
Si      3.48432379      -2.07463190       3.51610929       14      -0.00063371       0.00094999       0.00190346 
Si      3.41316332       3.42670228      -2.00234029       14       0.00367174       0.00028551       0.00191459 
Si      3.32859343       3.33447979       3.32705181       14       0.00213491       0.00114835      -0.00130724 
Si     -4.72715094      -4.71084467      -2.03417270       14       0.00257560      -0.00393197       0.00350829 
Si     -4.76144712      -4.78074007       3.37769048       14      -0.00114887      -0.00287492       0.00045444 
Si     -4.81003831       0.72589114      -2.12716906       14      -0.00168259       0.00068167      -0.00538475 
Si     -4.73035887       0.66966619       3.44647204       14       0.00281181       0.00027493       0.00148198 
Si      0.68381404      -4.79289760      -2.05764211       14      -0.00045044       0.00023909      -0.00008053 
Si      0.68257713      -4.81962931       3.51454246       14       0.00243043       0.00060524       0.00063478 
Si      0.38987803       1.14893755      -2.36753761       14       0.00409190      -0.00008703       0.00602733 
Si      0.71178055       0.63231839       3.41332378       14      -0.00125434      -0.00439356      -0.00022010 
Si      0.99485045       0.44978994      -0.34024085       14      -0.00283274       0.00363304       0.00041356 
Si     -0.97098908      -0.45505477       0.35523920       14      -0.00071695      -0.00033916      -0.00302733 
