66
energy=-10763.94884197 enthalpy=-10763.94880000 calculate_stress=True cut_off_energy=250.00000000 elec_energy_tol=0.00000010 fine_grid_scale=4.00000000 finite_basis_corr=automatic fix_occupancy=False max_scf_cycles=250 mix_history_length=20 mixing_scheme=pulay num_dump_cycles=0 opt_strategy=speed perc_extra_bands=200.00000000 smearing_width=0.05000000 spin_polarized=False task=GeometryOptimization xc_functional=PW91 castep_file_name=castep.castep castep_run_time=15470.56000000 virial="0.09591577       0.08590374       0.07359221       0.08590374      -0.02031780       0.18578908       0.07359221       0.18578908       0.01033933" cutoff=-1.00000000 nneightol=1.20000000 pbc="T T T" Lattice="11.01289500      -0.14281660       0.08231840      -0.14281660      11.06723060      -0.12955150       0.08231840      -0.12955150      11.03588950" Properties=species:S:1:pos:R:3:Z:I:1:frac_pos:R:3:force:R:3
Si             -3.39079061     -6.07326831     -6.15185894      14     -0.31094800     -0.55934900     -0.56168800     -0.01875000      0.00200000     -0.01137000
Si             -3.42298686     -6.08173658     -0.62906978      14     -0.31754800     -0.55434000     -0.06114100     -0.00299000     -0.00003000      0.00269000
Si             -3.45503606     -0.57442179     -6.20598330      14     -0.31034500     -0.06247200     -0.56076400     -0.00330000      0.00525000     -0.03280000
Si             -3.55757037     -0.56122508     -0.80984529      14     -0.32322400     -0.05572000     -0.07162600      0.00596000     -0.00147000      0.04278000
Si              2.12493221     -6.21734742     -6.13208728      14      0.18982400     -0.56592900     -0.56370900      0.00285000      0.03919000      0.00229000
Si              2.13862491     -6.24598287     -0.60134625      14      0.18736300     -0.56268100     -0.06249300     -0.00584000      0.00146000      0.01485000
Si              2.07549758     -0.65101059     -6.15798934      14      0.19183200     -0.06290500     -0.56016600     -0.00485000     -0.00916000      0.01348000
Si              2.54776664     -1.23448491     -0.26542541      14      0.23013400     -0.10889100     -0.02704600     -0.00293000     -0.01924000      0.01173000
Si             -6.14011656     -3.32891008     -6.16106108      14     -0.55744800     -0.31451300     -0.55780900     -0.01921000      0.00902000     -0.01685000
Si             -6.09224520     -3.38701203     -0.68019610      14     -0.55680600     -0.31394100     -0.06116700     -0.02392000      0.00652000     -0.00603000
Si             -6.28707151      2.23475973     -6.29567819      14     -0.56422800      0.18804200     -0.56405700     -0.00210000     -0.00839000     -0.00221000
Si             -6.24011418      2.13821505     -0.76475462      14     -0.56374700      0.18519100     -0.06291800     -0.00835000      0.00274000      0.00360000
Si             -0.66347411     -3.41789292     -6.10549496      14     -0.06018500     -0.31612100     -0.55650200      0.00381000      0.02703000     -0.03229000
Si             -0.56080158     -3.42205949     -0.57493804      14     -0.05453600     -0.31055800     -0.05533600     -0.01222000      0.00178000     -0.01034000
Si             -0.75752589      2.14956966     -6.24429249      14     -0.06215300      0.18683400     -0.56316000     -0.01148000     -0.00947000     -0.01679000
Si             -0.96274936      2.47577480     -0.95976734      14     -0.08392000      0.22164000     -0.08374000     -0.00322000     -0.02082000     -0.01448000
Si             -3.36035521     -3.30172309     -3.36787479      14     -0.30680500     -0.30588000     -0.30647700      0.00055000     -0.03096000     -0.01163000
Si             -3.36436002     -3.43744070      2.08602631      14     -0.31094700     -0.31241200      0.18767400     -0.00130000     -0.00017000      0.00743000
Si             -3.53741991      2.21440659     -3.55672248      14     -0.31633900      0.19228600     -0.31767000     -0.00260000      0.00065000      0.01101000
Si             -3.55709523      2.21823801      2.09789133      14     -0.32187500      0.19856000      0.19482900      0.00732000     -0.01168000     -0.03988000
Si              2.08636054     -3.46251029     -3.39610255      14      0.18771200     -0.31410100     -0.31282000      0.00134000      0.00665000     -0.00783000
Si              2.31590521     -3.77385890      2.30805415      14      0.20441100     -0.33597200      0.20367200      0.02648000      0.00707000      0.00685000
Si              2.04241093      2.22070104     -3.56928741      14      0.19045200      0.19933800     -0.32250600     -0.01886000     -0.02753000      0.01647000
Si              1.99199791      1.95233380      1.96392217      14      0.18188800      0.18084600      0.17872400     -0.01599000     -0.00609000      0.02250000
Si             -6.12101338     -6.08272793     -3.39833828      14     -0.56075300     -0.56048500     -0.31033200     -0.02108000     -0.00063000     -0.00811000
Si             -6.10269166     -6.20706251      2.10227811      14     -0.56288500     -0.56591300      0.18805000      0.00858000      0.02841000     -0.00208000
Si             -6.23165990     -0.55856281     -3.54404794      14     -0.56427400     -0.06147000     -0.31765100     -0.01273000      0.01457000      0.02556000
Si             -6.07883075     -0.65305042      2.14349038      14     -0.55427900     -0.06384700      0.19761400     -0.01237000     -0.02619000     -0.01231000
Si             -0.62591584     -6.08474367     -3.44914079      14     -0.06164200     -0.55432300     -0.31858600     -0.01304000      0.00169000     -0.00906000
Si             -0.57652616     -6.23420206      2.13949276      14     -0.06104000     -0.56189300      0.18772600      0.00228000     -0.00759000     -0.00108000
Si             -0.74943440     -0.61370735     -3.49983451      14     -0.06645700     -0.06002500     -0.31734100     -0.00249000     -0.00047000     -0.00716000
Si             -0.29075173     -1.15948891      2.46493796      14     -0.02939300     -0.10254400      0.22237200      0.02982000     -0.01146000      0.02452000
Si             -2.02968388     -4.71672360     -4.74818595      14     -0.18668100     -0.43367700     -0.43394800     -0.00595000     -0.02931000     -0.00463000
Si             -1.96130397     -4.81648618      0.75699147      14     -0.18424100     -0.43682100      0.06484000      0.00600000     -0.00747000     -0.01842000
Si             -2.12340476      0.78449146     -4.85244846      14     -0.18871900      0.06332700     -0.43754600      0.00895000      0.01225000     -0.00910000
Si             -2.51319940      1.23883225      0.29186644      14     -0.22700700      0.10935200      0.02942400      0.00646000      0.01866000     -0.00541000
Si              3.48635575     -4.86072692     -4.72862249      14      0.31412000     -0.44025000     -0.43598800      0.01501000     -0.00324000      0.01279000
Si              3.60068428     -4.98140194      0.78383179      14      0.32070400     -0.44522300      0.06340700      0.00208000      0.00577000      0.00551000
Si              3.40715236      0.70825788     -4.80363092      14      0.31346000      0.06292700     -0.43687300      0.00578000     -0.00877000      0.02324000
Si              3.59233098      0.56622805      0.83677665      14      0.32636900      0.05624100      0.07404900     -0.00628000     -0.00799000     -0.04381000
Si             -4.77278094     -1.95860878     -4.79694798      14     -0.43257300     -0.18763200     -0.43364400     -0.00325000      0.00556000      0.00503000
Si             -4.73822123     -1.99163093      0.70832120      14     -0.43312700     -0.18478300      0.06524500      0.00824000      0.00372000     -0.00463000
Si             -4.91962138      3.60417896     -4.93100232      14     -0.43934400      0.31484400     -0.43984200      0.01654000     -0.00140000      0.01543000
Si             -4.88614882      3.53460630      0.62354089      14     -0.44007200      0.31444000      0.06347500      0.03068000     -0.01912000      0.00505000
Si              0.70960652     -2.01577237     -4.76575185      14      0.06526500     -0.18638300     -0.43451600      0.00921000      0.01075000      0.01928000
Si              0.99754842     -2.47216413      0.98650550      14      0.08706700     -0.22124500      0.08614400      0.00612000      0.02289000      0.01143000
Si              0.61514113      3.55209548     -4.90468952      14      0.06326000      0.31660800     -0.44118600     -0.00009000     -0.03281000      0.03228000
Si              0.59572866      3.42642943      0.60094010      14      0.05769600      0.31102100      0.05767400      0.00994000     -0.00126000      0.01039000
Si             -1.95784382     -1.94751688     -1.93744549      14     -0.17879800     -0.18034300     -0.17634200      0.01987000      0.00375000     -0.02246000
Si             -2.00771617     -2.21588639      3.59441093      14     -0.18731200     -0.19883600      0.32476500      0.00587000      0.02074000     -0.00777000
Si             -2.28065787      3.77769651     -2.28134844      14     -0.20122300      0.33638800     -0.20127100     -0.02372000     -0.00806000     -0.01632000
Si             -2.05184479      3.46613710      3.42176817      14     -0.18459000      0.31449600      0.31512700      0.00284000     -0.00178000      0.01158000
Si              3.59166015     -2.21432708     -2.07102597      14      0.32500100     -0.19813800     -0.19241300     -0.01109000      0.01628000      0.02456000
Si              3.57290779     -2.21074284      3.58289131      14      0.31954900     -0.19188600      0.32002200      0.00142000      0.00073000     -0.00650000
Si              3.39830424      3.44182762     -2.06039577      14      0.31401800      0.31287500     -0.18536900      0.00606000     -0.00235000     -0.00237000
Si              3.39504272      3.30609190      3.39423922      14      0.30994300      0.30634300      0.30884800      0.00224000      0.02668000      0.00861000
Si             -4.73290734     -4.71368652     -2.02976628      14     -0.43399600     -0.43368900     -0.18577800     -0.01129000     -0.02198000      0.00757000
Si             -4.71437140     -4.83818342      3.47125078      14     -0.43610900     -0.43913100      0.31264000      0.02249000     -0.00127000      0.00593000
Si             -4.89862038      0.79971559     -2.19931140      14     -0.44251500      0.06426400     -0.19523200      0.00141000      0.02366000      0.00135000
Si             -4.74637926      0.70488458      3.48701288      14     -0.43257300      0.06185400      0.31992300      0.01499000     -0.01038000     -0.01349000
Si              0.75400007     -4.82905410     -1.98388142      14      0.06417500     -0.43768000     -0.18538300     -0.00482000      0.01026000     -0.00213000
Si              0.80349342     -4.97827606      3.60428672      14      0.06478700     -0.44522900      0.32088700      0.01090000     -0.00365000      0.01857000
Si              0.32442649      1.16330637     -2.43951242      14      0.03243900      0.10295500     -0.22008600     -0.01172000      0.02172000     -0.01322000
Si              0.78354237      0.61860400      3.52616650      14      0.06954300      0.06053500      0.31971000      0.00227000     -0.01376000     -0.00035000
Si              0.96632969      0.32190221     -0.46934741      14      0.08845100      0.02972600     -0.04284000     -0.02180000     -0.00323000     -0.02355000
Si             -0.93137401     -0.31787901      0.49564058      14     -0.08528900     -0.02929400      0.04520400      0.01526000      0.01177000      0.01210000
66
energy=-10762.18837860 enthalpy=-10762.18850000 calculate_stress=True cut_off_energy=250.00000000 elec_energy_tol=0.00000010 fine_grid_scale=4.00000000 finite_basis_corr=automatic fix_occupancy=False max_scf_cycles=250 mix_history_length=20 mixing_scheme=pulay num_dump_cycles=0 opt_strategy=speed perc_extra_bands=200.00000000 smearing_width=0.05000000 spin_polarized=False task=GeometryOptimization xc_functional=PW91 castep_file_name=castep.castep castep_run_time=14243.63000000 virial="-0.23740247       0.03308494      -0.07018244       0.03308494      -0.17598146       0.11607446      -0.07018244       0.11607446      -0.14718209" cutoff=-1.00000000 nneightol=1.20000000 pbc="T T T" Lattice="10.98047100      -0.02690880       0.02685970      -0.02690880      10.98566500      -0.02804750       0.02685970      -0.02804750      10.98879560" Properties=species:S:1:pos:R:3:Z:I:1:frac_pos:R:3:force:R:3
Si             -4.81443674     -6.12225361     -2.05361407      14     -0.43936600     -0.55884900     -0.18723500      0.00355000     -0.00080000     -0.00417000
Si             -4.75599648     -6.18059731      3.44673153      14     -0.43527800     -0.56287200      0.31328600     -0.02885000      0.01964000      0.02154000
Si             -4.81654970     -0.66874371     -2.08503689      14     -0.43833800     -0.06243000     -0.18883000      0.01108000      0.00946000      0.00926000
Si             -4.79677535     -0.66736629      3.45094022      14     -0.43776600     -0.06101700      0.31495600     -0.00749000      0.00506000      0.00558000
Si              0.71461489     -6.14564224     -2.05888778      14      0.06417100     -0.55974900     -0.18894800      0.00036000     -0.00350000      0.01764000
Si              0.71372075     -6.16861619      3.47827672      14      0.06285500     -0.56055700      0.31494500     -0.01113000      0.01069000      0.01458000
Si              0.71585483     -0.69749607     -2.15714376      14      0.06551800     -0.06383300     -0.19662700      0.00628000     -0.00478000     -0.00112000
Si              0.72794915     -0.70968824      3.52091055      14      0.06535600     -0.06362400      0.32008700     -0.01257000      0.01240000     -0.00196000
Si             -2.08740966     -3.47161793     -2.08862288      14     -0.19041300     -0.31696600     -0.19041200      0.02138000      0.01288000      0.00952000
Si             -2.03123438     -3.41973307      3.43987508      14     -0.18651300     -0.31094900      0.31269700     -0.01043000     -0.01167000      0.01795000
Si             -2.13078010      2.15320690     -2.13480206      14     -0.19310100      0.19503500     -0.19330100      0.02414000     -0.01862000      0.01514000
Si             -2.08820466      2.10805901      3.49208255      14     -0.19048300      0.19223900      0.31874200      0.01962000     -0.01210000     -0.01333000
Si              3.43760899     -3.41925325     -2.03280465      14      0.31276000     -0.31095700     -0.18654700      0.00976000     -0.01648000     -0.01706000
Si              3.53570718     -3.51790580      3.53848537      14      0.32043500     -0.31862400      0.32041200     -0.02292000      0.01757000     -0.02063000
Si              3.49083354      2.10854871     -2.09025888      14      0.31885000      0.19223100     -0.19050600     -0.01785000     -0.01338000      0.00611000
Si              3.43720886      2.05234869      3.43942227      14      0.31272600      0.18838500      0.31271000      0.00527000      0.00697000      0.01202000
Si             -4.78248396     -3.39849629     -4.78712268      14     -0.43524300     -0.31153500     -0.43536800     -0.02926000     -0.02116000     -0.02290000
Si             -4.79638896     -3.43044074      0.68735361      14     -0.43773200     -0.31317700      0.06282100     -0.01122000     -0.00257000     -0.00807000
Si             -4.84115847      2.10021863     -4.84605053      14     -0.43935000      0.18898000     -0.43944300      0.00375000      0.01168000      0.00685000
Si             -4.81702309      2.10367688      0.68826165      14     -0.43838000      0.19058300      0.06419100      0.01118000     -0.01078000     -0.01470000
Si              0.68708908     -3.43039837     -4.80014596      14      0.06287700     -0.31322500     -0.43777500     -0.01902000     -0.01559000     -0.00273000
Si              0.72895881     -3.49985955      0.72909869      14      0.06544700     -0.31825700      0.06537700     -0.02158000      0.01179000     -0.00647000
Si              0.68790391      2.10572532     -4.82246468      14      0.06418800      0.19071700     -0.43852300     -0.00628000     -0.01772000      0.00848000
Si              0.71550648      2.17289137      0.71607816      14      0.06548700      0.19812100      0.06551000      0.00018000     -0.00902000      0.00892000
Si             -2.05177086     -6.12195630     -4.81803810      14     -0.18715100     -0.55884800     -0.43941900     -0.01026000     -0.00616000      0.00270000
Si             -2.05675740     -6.14467117      0.71622573      14     -0.18883900     -0.55963400      0.06421100      0.00156000     -0.01406000     -0.01415000
Si             -2.08367456     -0.66797009     -4.82240383      14     -0.18884200     -0.06238600     -0.43854500     -0.00379000      0.00908000      0.01036000
Si             -2.14872054     -0.69846544      0.71880998      14     -0.19600300     -0.06389200      0.06572900      0.01749000     -0.01090000      0.01110000
Si              3.44341544     -6.17987490     -4.75963820      14      0.31328000     -0.56288400     -0.43533800      0.02297000      0.02404000     -0.02647000
Si              3.47627607     -6.16809867      0.71376394      14      0.31506000     -0.56053600      0.06275300      0.01217000      0.00493000      0.00109000
Si              3.44952444     -0.66673338     -4.79980797      14      0.31507200     -0.06103700     -0.43771700      0.01014000      0.00950000     -0.00215000
Si              3.51475764     -0.70942170      0.72813982      14      0.31977600     -0.06362700      0.06531800     -0.02371000      0.01782000     -0.00602000
Si             -3.42350609     -4.75793259     -6.18256304      14     -0.31147100     -0.43530400     -0.56297400     -0.02061000     -0.02684000      0.02923000
Si             -3.42925624     -4.79708668     -0.66722562      14     -0.31322800     -0.43759100     -0.06107000     -0.01036000     -0.01710000      0.00758000
Si             -3.45606293      0.71482008     -6.17029738      14     -0.31322100      0.06287000     -0.56058200     -0.01082000     -0.01507000      0.00797000
Si             -3.49398561      0.72876883     -0.70988625      14     -0.31788400      0.06539700     -0.06365700      0.01452000     -0.01300000      0.01781000
Si              2.07183437     -4.81611500     -6.12425000      14      0.18897400     -0.43936400     -0.55890100      0.01167000      0.00070000     -0.00546000
Si              2.10437342     -4.82020125     -0.66803846      14      0.19072500     -0.43846400     -0.06237800     -0.01303000      0.00244000     -0.00408000
Si              2.07708292      0.71559489     -6.14744773      14      0.19068800      0.06417700     -0.55973100     -0.00633000     -0.00468000     -0.00804000
Si              2.16883176      0.71875861     -0.70042857      14      0.19783500      0.06574800     -0.06405600     -0.01651000      0.00661000     -0.01149000
Si             -6.14638782     -2.02584768     -6.15103512      14     -0.55884800     -0.18720400     -0.55886700      0.00179000     -0.00715000     -0.00309000
Si             -6.14384947     -2.05733178     -0.69624452      14     -0.55983500     -0.18880500     -0.06247300     -0.00270000      0.00827000      0.01161000
Si             -6.20467755      3.47274529     -6.20989578      14     -0.56292000      0.31330000     -0.56293600      0.02962000      0.02947000      0.02606000
Si             -6.16429556      3.47607170     -0.69548805      14     -0.56046600      0.31489000     -0.06111700      0.01402000      0.01729000      0.01141000
Si             -0.69553778     -2.05771541     -6.14663220      14     -0.06243700     -0.18889100     -0.55968400      0.01448000      0.00606000     -0.01372000
Si             -0.69508825     -2.15231360     -0.69758685      14     -0.06362700     -0.19623900     -0.06382700     -0.00655000      0.00014000     -0.00893000
Si             -0.69304398      3.47740812     -6.17037280      14     -0.06097300      0.31496000     -0.56056200      0.00168000      0.01566000      0.00558000
Si             -0.70870291      3.51971205     -0.71036417      14     -0.06360200      0.32007300     -0.06367200      0.01131000     -0.01220000      0.01712000
Si             -3.41700703     -2.03229968     -3.42014994      14     -0.31088600     -0.18655100     -0.31095600     -0.01197000     -0.00944000     -0.01959000
Si             -3.47012637     -2.08904908      2.10908331      14     -0.31696400     -0.19044700      0.19221900      0.00791000      0.01749000     -0.01336000
Si             -3.51617576      3.53792419     -3.51948931      14     -0.31865600      0.32045500     -0.31868300      0.02791000     -0.02330000      0.01946000
Si             -3.41748338      3.43863335      2.05167191      14     -0.31092700      0.31273000      0.18826400     -0.01255000      0.02175000      0.01392000
Si              2.10789068     -2.08928010     -3.47397304      14      0.19227600     -0.19052100     -0.31709400     -0.00728000      0.01767000      0.01369000
Si              2.15078764     -2.13416902      2.15443911      14      0.19492300     -0.19329300      0.19508800     -0.02827000      0.03041000     -0.02618000
Si              2.05073278      3.43952152     -3.42114224      14      0.18828900      0.31275900     -0.31099200      0.01760000      0.01115000     -0.01228000
Si              2.10666658      3.49160411      2.10758538      14      0.19216700      0.31879400      0.19213800     -0.00353000     -0.01423000     -0.01554000
Si             -6.17743072     -4.75821832     -3.42676578      14     -0.56288800     -0.43530400     -0.31157700      0.02754000     -0.02513000     -0.02214000
Si             -6.11908869     -4.81651856      2.07386517      14     -0.55880900     -0.43932300      0.18897000     -0.00697000     -0.00224000      0.00528000
Si             -6.16313141      0.71429028     -3.45853761      14     -0.56036100      0.06284800     -0.31320300      0.00482000     -0.01168000     -0.01069000
Si             -6.14382906      0.71553719      2.07737276      14     -0.55983200      0.06424900      0.19057700     -0.01229000     -0.01410000     -0.00991000
Si             -0.66659701     -4.79839367     -3.43148076      14     -0.06101400     -0.43773600     -0.31323900      0.00735000      0.00056000     -0.01177000
Si             -0.66817082     -4.82098361      2.10652722      14     -0.06239200     -0.43850900      0.19073100      0.01469000      0.01605000     -0.01623000
Si             -0.70849144      0.72870639     -3.50162642      14     -0.06358400      0.06536400     -0.31833200      0.01646000     -0.00725000      0.00036000
Si             -0.69569721      0.71609908      2.17484829      14     -0.06368200      0.06553500      0.19823800     -0.00227000      0.00886000      0.00438000
Si             -0.69340199      0.71385823     -0.70065259      14     -0.06283500      0.06466500     -0.06344200      0.00795000      0.00394000     -0.00500000
Si              0.71495959     -0.69420098      0.71716009      14      0.06479900     -0.06286700      0.06494400     -0.00377000     -0.00531000      0.00914000
66
energy=-10763.87057717 enthalpy=-10763.87070000 calculate_stress=True cut_off_energy=250.00000000 elec_energy_tol=0.00000010 fine_grid_scale=4.00000000 finite_basis_corr=automatic fix_occupancy=False max_scf_cycles=250 mix_history_length=20 mixing_scheme=pulay num_dump_cycles=0 opt_strategy=speed perc_extra_bands=200.00000000 smearing_width=0.05000000 spin_polarized=False task=GeometryOptimization xc_functional=PW91 castep_file_name=castep.castep castep_run_time=23458.57000000 virial="0.08265025       0.03478440       0.04388670       0.03478440       0.00454286       0.02200138       0.04388670       0.02200138       0.06326847" cutoff=-1.00000000 nneightol=1.20000000 pbc="T T T" Lattice="10.89984890       0.02167320      -0.03720670       0.02167320      10.91502710       0.02753040      -0.03720670       0.02753040      11.16409340" Properties=species:S:1:pos:R:3:Z:I:1:frac_pos:R:3:force:R:3
Si             -4.33140049     -2.34165924     -5.30216027      14     -0.39858300     -0.21254400     -0.47573400      0.01398000      0.01357000      0.02131000
Si             -4.28240770     -2.20684780      0.27819758      14     -0.39240400     -0.20146600      0.02410800     -0.01904000     -0.00040000      0.00401000
Si             -4.26193085      3.21123771     -5.28801937      14     -0.39322100      0.29618400     -0.47570400      0.01030000      0.00440000     -0.01749000
Si             -4.16640349      3.09518741      0.60177849      14     -0.38263200      0.28420000      0.05192700     -0.01230000      0.02342000      0.01502000
Si              1.17813082     -2.24400345     -5.35928559      14      0.10685800     -0.20459200     -0.47918600     -0.00378000      0.01092000     -0.00867000
Si              1.31205823     -2.50630320      0.52137027      14      0.12099400     -0.22998000      0.04767100     -0.00367000     -0.03294000     -0.00542000
Si              1.26405968      3.26850192     -5.34336059      14      0.11373800      0.30043200     -0.47898200      0.00757000     -0.00175000      0.01516000
Si              1.13854728      3.23777304      0.27890581      14      0.10395000      0.29636600      0.02459800     -0.00308000      0.00149000     -0.00108000
Si             -7.00431612     -4.98461553     -5.25230504      14     -0.64331300     -0.45420800     -0.47148800     -0.00969000      0.00739000     -0.00517000
Si             -6.91819443     -5.08696321      0.30255341      14     -0.63369200     -0.46485900      0.02613500      0.01607000     -0.00448000      0.00717000
Si             -6.98172059      0.46686077     -5.29711646      14     -0.64225100      0.04525000     -0.47673000     -0.01928000     -0.01177000      0.00317000
Si             -7.02466200      0.48813433      0.32179515      14     -0.64447400      0.04593400      0.02656300     -0.00546000      0.01205000      0.00186000
Si             -1.54356963     -4.95346361     -5.31388618      14     -0.14233700     -0.45233900     -0.47533900     -0.00526000     -0.00616000      0.00464000
Si             -1.60044557     -4.97586499      0.28361723      14     -0.14583700     -0.45564900      0.02604200      0.00616000      0.00830000     -0.01345000
Si             -1.57978644      0.47426429     -5.32786705      14     -0.14665700      0.04494700     -0.47783200     -0.00959000      0.01129000     -0.02108000
Si             -2.43926664      1.35707458      0.61963381      14     -0.22385100      0.12463800      0.05444900     -0.00594000      0.01434000      0.01806000
Si             -4.26752428     -5.00320581     -2.46195891      14     -0.39136600     -0.45704400     -0.22070200     -0.00713000     -0.00935000     -0.00699000
Si             -4.31657803     -4.91759809      3.12282964      14     -0.39417200     -0.45045700      0.27951800      0.00175000      0.00045000      0.00069000
Si             -4.29141190      0.38637781     -2.60372639      14     -0.39458700      0.03677400     -0.23462900     -0.00035000     -0.00600000      0.00670000
Si             -4.37791736      0.45747241      3.17172120      14     -0.40076800      0.04199500      0.28266100     -0.00011000      0.01382000      0.01226000
Si              1.16150210     -4.98309105     -2.51645976      14      0.10670400     -0.45618200     -0.22392600      0.02065000     -0.01142000     -0.00382000
Si              1.13468836     -4.97205998      3.08769028      14      0.10595800     -0.45643600      0.27805200     -0.00013000      0.01346000     -0.00988000
Si              1.22788851      0.62927289     -2.81663372      14      0.11167600      0.05806600     -0.25206500      0.00414000      0.00332000      0.00594000
Si              1.10145608      0.52874607      3.05918118      14      0.10189400      0.04754800      0.27424200     -0.00052000      0.00070000     -0.00904000
Si             -7.05750594     -2.23643312     -2.44475416      14     -0.64783600     -0.20305200     -0.22064200      0.01576000     -0.00167000     -0.02050000
Si             -6.96786798     -2.26017576      3.14530105      14     -0.63789600     -0.20651000      0.28011700      0.00438000     -0.00963000      0.00180000
Si             -6.91801759      3.20883137     -2.46527518      14     -0.63604100      0.29581000     -0.22367100     -0.00088000      0.02047000      0.00579000
Si             -7.06716363      3.24085786      3.15623713      14     -0.64800900      0.29749800      0.27982000     -0.01687000      0.01130000     -0.01958000
Si             -1.62758066     -2.31288137     -2.67604815      14     -0.14972000     -0.21099700     -0.23968000      0.02222000     -0.01283000      0.00304000
Si             -1.63227716     -2.15760569      3.03987375      14     -0.14842900     -0.19806500      0.27228400     -0.00851000      0.01042000     -0.00541000
Si             -1.48302347      3.25334183     -2.60811930      14     -0.13745500      0.29892600     -0.23481200     -0.00213000      0.00615000      0.01486000
Si             -1.53255962      3.29858606      3.16240304      14     -0.14024100      0.30177300      0.28205400      0.00913000     -0.02208000      0.00294000
Si             -2.93355034     -6.31133898     -3.93747796      14     -0.26919200     -0.57680200     -0.35216600     -0.01260000     -0.00035000     -0.00080000
Si             -2.93903528     -6.25776986      1.78735498      14     -0.26795200     -0.57319000      0.16061900     -0.00269000      0.00486000     -0.00966000
Si             -2.99013099     -0.96339871     -4.02755015      14     -0.27538900     -0.08680500     -0.36146300     -0.01055000     -0.00705000     -0.02578000