66
energy=-10763.31843800 enthalpy=-10763.31840000 calculate_stress=True cut_off_energy=250.0 elec_energy_tol=1e-07 fine_grid_scale=4.0 finite_basis_corr=automatic fix_occupancy=False max_scf_cycles=250 mix_history_length=20 mixing_scheme=pulay num_dump_cycles=0 opt_strategy=speed perc_extra_bands=200.0 smearing_width=0.05 spin_polarized=False task=GeometryOptimization xc_functional=PW91 kpoints_mp_grid="4       4       4" castep_file_name=castep.castep virial="14.56915440      -6.12714326      -0.68369594      -6.12714326      14.47534280      -0.53375677      -0.68369594      -0.53375677      31.68627445" cutoff=-1.00000000 nneightol=1.20000000 pbc="T T T" Lattice="10.92204330       0.00000000       0.00000000       0.00000000      10.92204330       0.00000000       0.00000000       0.00000000      10.92204330" Properties=species:S:1:pos:R:3:Z:I:1:frac_pos:R:3:force:R:3
Si             -2.74437090     -2.45975337     -5.98903691      14     -0.25126900     -0.22521000     -0.54834400      0.14465000      0.14961000      0.05886000
Si             -2.68448533     -2.40426939     -0.53716793      14     -0.24578600     -0.22013000     -0.04918200     -0.03607000     -0.00246000     -0.18373000
Si             -2.65119495      3.09501218     -5.94889840      14     -0.24273800      0.28337300     -0.54466900     -0.09382000      0.11468000      0.00355000
Si             -2.69094026      3.22601116     -0.18933362      14     -0.24637700      0.29536700     -0.01733500      0.01354000     -0.23821000     -0.28459000
Si              2.81676220     -2.36557259     -5.94220319      14      0.25789700     -0.21658700     -0.54405600      0.02013000     -0.00807000     -0.10750000
Si              2.94683281     -2.40515408     -0.18882028      14      0.26980600     -0.22021100     -0.01728800     -0.30337000     -0.01824000     -0.28821000
Si              2.91399023      3.20030067     -5.98150070      14      0.26679900      0.29301300     -0.54765400     -0.19595000     -0.20366000      0.02490000
Si              2.77339077      3.06080434     -0.48764739      14      0.25392600      0.28024100     -0.04464800     -0.00829000     -0.07468000      0.00944000
Si             -5.35720763     -5.07548444     -5.87966357      14     -0.49049500     -0.46470100     -0.53833000     -0.04477000      0.04704000      0.10476000
Si             -5.37478120     -5.09323276     -0.51130454      14     -0.49210400     -0.46632600     -0.04681400     -0.06178000     -0.06813000     -0.01631000
Si             -5.44455121      0.36008885     -5.90790797      14     -0.49849200      0.03296900     -0.54091600      0.06769000     -0.09144000     -0.11522000
Si             -5.35870395      0.42321826     -0.49372005      14     -0.49063200      0.03874900     -0.04520400      0.01902000     -0.05266000      0.19049000
Si              0.07769942     -5.15874318     -5.90859606      14      0.00711400     -0.47232400     -0.54097900     -0.07806000      0.00050000     -0.06824000
Si              0.13481078     -5.07929624     -0.49441906      14      0.01234300     -0.46505000     -0.04526800      0.04846000      0.02299000      0.18357000
Si              0.07068746      0.35363392     -6.01285789      14      0.00647200      0.03237800     -0.55052500     -0.05165000      0.03378000     -0.05267000
Si             -0.99268267      1.60789953     -0.35774061      14     -0.09088800      0.14721600     -0.03275400     -0.45482000     -0.26007000      0.13424000
Si             -2.62056954     -5.10147891     -3.16228104      14     -0.23993400     -0.46708100     -0.28953200     -0.01626000     -0.08945000     -0.01218000
Si             -2.68740152     -5.07942730      2.28581983      14     -0.24605300     -0.46506200      0.20928500      0.36281000      0.11926000      0.04503000
Si             -2.68257398      0.27513719     -3.40638871      14     -0.24561100      0.02519100     -0.31188200     -0.03062000      0.15221000      0.05777000
Si             -2.93548481      0.53953802      2.45989536      14     -0.26876700      0.04939900      0.22522300     -0.13430000     -0.06337000     -0.06223000
Si              2.78516473     -5.07723197     -3.16696660      14      0.25500400     -0.46486100     -0.28996100      0.10751000      0.00222000      0.04332000
Si              2.90199783     -5.22955079      2.34778058      14      0.26570100     -0.47880700      0.21495800     -0.19004000      0.15902000     -0.27170000
Si              2.84545441      0.47836365     -3.41423074      14      0.26052400      0.04379800     -0.31260000     -0.04264000     -0.04875000      0.06402000
Si              2.79829303      0.38693523      2.22335667      14      0.25620600      0.03542700      0.20356600     -0.07782000      0.17400000      0.01313000
Si             -5.38609643     -2.33133199     -3.16020585      14     -0.49314000     -0.21345200     -0.28934200     -0.05803000     -0.14291000     -0.01801000
Si             -5.36010197     -2.40362499      2.28567785      14     -0.49076000     -0.22007100      0.20927200      0.09563000      0.28872000      0.05682000
Si             -5.37094756      3.06832962     -3.16334048      14     -0.49175300      0.28093000     -0.28962900      0.06226000      0.15662000      0.04000000
Si             -5.51592676      3.18994658      2.34603306      14     -0.50502700      0.29206500      0.21479800      0.10170000     -0.22730000     -0.23081000
Si             -0.00063348     -2.39936539     -3.41317130      14     -0.00005800     -0.21968100     -0.31250300      0.00358000     -0.00853000      0.15742000
Si              0.25345694     -2.64901054      2.46786845      14      0.02320600     -0.24253800      0.22595300     -0.07824000     -0.17586000     -0.15688000
Si              0.19929452      3.13221266     -3.41273442      14      0.01824700      0.28677900     -0.31246300     -0.08423000     -0.11746000      0.10189000
Si              0.10196820      3.07551633      2.22516973      14      0.00933600      0.28158800      0.20373200      0.21835000      0.01115000     -0.01608000
Si             -6.70936751     -6.42127677     -4.49581884      14     -0.61429600     -0.58791900     -0.41162800     -0.05113000     -0.08196000     -0.10219000
Si             -6.76018778     -6.47093931      0.85030291      14     -0.61894900     -0.59246600      0.07785200     -0.02056000     -0.04921000      0.14586000
Si             -6.74214456     -1.04491188     -4.56409253      14     -0.61729700     -0.09567000     -0.41787900     -0.07739000      0.22418000     -0.09543000
Si             -6.60707165     -0.94482228      0.98025339      14     -0.60493000     -0.08650600      0.08975000     -0.02210000     -0.15485000      0.03625000
Si             -1.32533534     -6.46473559     -4.55973464      14     -0.12134500     -0.59189800     -0.41748000      0.15867000     -0.01885000     -0.17409000
Si             -1.22293027     -6.32588365      0.97678018      14     -0.11196900     -0.57918500      0.08943200     -0.24386000     -0.06759000      0.09686000
Si             -1.37335957     -1.08446060     -4.78189992      14     -0.12574200     -0.09929100     -0.43782100      0.02928000     -0.04890000      0.08182000
Si             -2.09481514     -0.21954399      0.50581075      14     -0.19179700     -0.02010100      0.04631100      0.45003000      0.14521000     -0.02442000
Si             -4.02125606     -3.74063600     -4.48345509      14     -0.36817800     -0.34248500     -0.41049600     -0.00570000      0.07890000     -0.11001000
Si             -4.01483390     -3.73425753      0.88937106      14     -0.36759000     -0.34190100      0.08142900     -0.04626000     -0.02323000      0.04188000
Si             -4.06052080      1.74965673     -4.60699432      14     -0.37177300      0.16019500     -0.42180700      0.12105000     -0.14004000     -0.03086000
Si             -4.21465268      1.87665825      0.99529304      14     -0.38588500      0.17182300      0.09112700      0.30272000      0.05941000      0.19554000
Si              1.46890560     -3.76788650     -4.61432301      14      0.13449000     -0.34498000     -0.42247800     -0.14667000      0.02021000      0.00447000
Si              1.59045702     -3.92909586      0.99272636      14      0.14561900     -0.35974000      0.09089200      0.03874000      0.32844000      0.22131000
Si              1.52111297      1.80808966     -4.81532137      14      0.13927000      0.16554500     -0.44088100      0.17017000      0.13565000      0.19103000
Si              1.32725762      1.61188607      0.71882336      14      0.12152100      0.14758100      0.06581400     -0.04535000     -0.06709000      0.31694000
Si             -6.73099316     -3.74640284     -7.27281388      14     -0.61627600     -0.34301300     -0.66588400      0.01953000     -0.10929000      0.01485000
Si             -6.79533491     -3.67071308     -1.81253493      14     -0.62216700     -0.33608300     -0.16595200      0.14070000     -0.00309000      0.06181000
Si             -6.79445023      1.72133587     -7.28894574      14     -0.62208600      0.15760200     -0.66736100      0.14236000      0.13313000      0.02191000
Si             -6.78818098      1.70628529     -1.84991016      14     -0.62151200      0.15622400     -0.16937400     -0.03817000      0.05194000     -0.18302000
Si             -1.32405747     -3.82079288     -7.22489888      14     -0.12122800     -0.34982400     -0.66149700     -0.04737000     -0.03223000     -0.03726000
Si             -1.22120458     -3.70971570     -1.85728254      14     -0.11181100     -0.33965400     -0.17004900      0.01285000      0.09905000     -0.08430000
Si             -1.28799288      1.76095012     -7.33142157      14     -0.11792600      0.16122900     -0.67125000     -0.02754000     -0.08630000      0.08298000
Si             -0.74078759      1.20566252     -2.54294658      14     -0.06782500      0.11038800     -0.23282700      0.09207000     -0.00053000     -0.20866000
Si             -4.03770466     -6.43832608     -7.27605773      14     -0.36968400     -0.58948000     -0.66618100     -0.02517000     -0.10690000      0.04072000
Si             -3.94862447     -6.51063001     -1.81488317      14     -0.36152800     -0.59610000     -0.16616700     -0.10171000      0.08041000      0.07332000
Si             -4.10217748     -1.04069597     -7.23247877      14     -0.37558700     -0.09528400     -0.66219100     -0.04567000     -0.00861000      0.03984000
Si             -3.98716836     -0.93679458     -1.86362825      14     -0.36505700     -0.08577100     -0.17063000      0.03127000     -0.01444000      0.07655000
Si              1.44093425     -6.50772475     -7.29359853      14      0.13192900     -0.59583400     -0.66778700      0.04889000      0.09268000      0.05956000
Si              1.42863603     -6.50471026     -1.85136279      14      0.13080300     -0.59555800     -0.16950700      0.01020000      0.04108000     -0.20197000
Si              1.47015072     -1.00152953     -7.32943375      14      0.13460400     -0.09169800     -0.67106800      0.06464000     -0.03630000      0.07123000
Si              0.92012754     -0.45243472     -2.54860419      14      0.08424500     -0.04142400     -0.23334500     -0.02166000      0.03039000     -0.06750000
Si              1.32289973     -0.70775933     -0.35315335      14      0.12112200     -0.06480100     -0.03233400     -0.28043000     -0.45811000      0.01692000
Si             -0.50752551     -1.81540743      0.50562507      14     -0.04646800     -0.16621500      0.04629400      0.18901000      0.44629000      0.02323000
66
energy=-10763.44365694 calculate_stress=True cut_off_energy=250.0 elec_energy_tol=1e-07 fine_grid_scale=4.0 finite_basis_corr=automatic fix_occupancy=False max_scf_cycles=250 mix_history_length=20 mixing_scheme=pulay num_dump_cycles=0 opt_strategy=speed perc_extra_bands=200.0 smearing_width=0.05 spin_polarized=False task=GeometryOptimization xc_functional=PW91 castep_file_name=castep.castep virial="11.19881081      -5.28262647      -0.61692659      -5.28262647      11.12239681      -0.50537849      -0.61692659      -0.50537849      27.07790147" cutoff=-1.00000000 nneightol=1.20000000 pbc="T T T" Lattice="10.93508830      -0.00548620      -0.00061220      -0.00548620      10.93500430      -0.00047790      -0.00061220      -0.00047790      10.95041480" Properties=species:S:1:pos:R:3:Z:I:1:frac_pos:R:3:force:R:3
Si             -2.74557472     -2.46050713     -6.00413574      14     -0.25122300     -0.22516200     -0.54832600      0.14139000      0.14587000      0.04757000
Si             -2.68658501     -2.40576140     -0.53894275      14     -0.24579800     -0.22013100     -0.04924000     -0.02995000     -0.00080000     -0.18557000
Si             -2.65591091      3.10067080     -5.96432735      14     -0.24276800      0.28340900     -0.54466800     -0.08823000      0.10648000     -0.00556000
Si             -2.69571987      3.23036833     -0.19081222      14     -0.24637300      0.29529100     -0.01742600      0.01661000     -0.22847000     -0.27163000
Si              2.82172436     -2.36955654     -5.95806557      14      0.25790400     -0.21658900     -0.54409000      0.02019000     -0.01147000     -0.10956000
Si              2.95052145     -2.40953428     -0.19037808      14      0.26971000     -0.22021600     -0.01738000     -0.28922000     -0.01120000     -0.27474000
Si              2.91552075      3.20218599     -5.99725416      14      0.26673700      0.29294800     -0.54764600     -0.19184000     -0.19949000      0.00862000
Si              2.77516043      3.06280236     -0.48917064      14      0.25392300      0.28021700     -0.04464500     -0.01351000     -0.07397000     -0.00705000
Si             -5.36088032     -5.07839513     -5.89404212      14     -0.49050900     -0.46468600     -0.53829600     -0.04346000      0.03985000      0.08918000
Si             -5.37882132     -5.09679513     -0.51216333      14     -0.49212300     -0.46634800     -0.04681900     -0.06099000     -0.06638000     -0.01308000
Si             -5.45066300      0.36318133     -5.92337032      14     -0.49847000      0.03293900     -0.54095300      0.06614000     -0.08771000     -0.11980000
Si             -5.36522349      0.42624783     -0.49405272      14     -0.49062600      0.03873200     -0.04514300      0.01485000     -0.04751000      0.18056000
Si              0.08044131     -5.16464532     -5.92396397      14      0.00708900     -0.47232400     -0.54100100     -0.07703000      0.00386000     -0.07717000
Si              0.13771481     -5.08528246     -0.49484262      14      0.01235800     -0.46504200     -0.04520900      0.04479000      0.02047000      0.17480000
Si              0.07074534      0.35440154     -6.02868270      14      0.00645500      0.03238900     -0.55054200     -0.04451000      0.03221000     -0.05867000
Si             -0.99624107      1.60941505     -0.35821360      14     -0.09103300      0.14713300     -0.03271100     -0.43804000     -0.25395000      0.06628000
Si             -2.62101424     -5.10638420     -3.17016918      14     -0.23993900     -0.46710900     -0.28953600     -0.01316000     -0.08814000     -0.02799000
Si             -2.68691973     -5.08379020      2.29228366      14     -0.24593700     -0.46502400      0.20929900      0.34315000      0.11117000      0.03711000
Si             -2.68582394      0.27749607     -3.41489090      14     -0.24562000      0.02524000     -0.31186300     -0.02215000      0.13542000      0.04434000
Si             -2.93986986      0.54132670      2.46620723      14     -0.26881000      0.04937900      0.22520300     -0.12013000     -0.06727000     -0.09988000
Si              2.79159087     -5.08450672     -3.17497390      14      0.25503800     -0.46486000     -0.28994700      0.10433000      0.00390000      0.02522000
Si              2.90729186     -5.23675896      2.35300370      14      0.26564000     -0.47875600      0.21487200     -0.18738000      0.15539000     -0.27725000
Si              2.84865102      0.47747653     -3.42306107      14      0.26051000      0.04378200     -0.31258000     -0.04803000     -0.04543000      0.04943000
Si              2.80104257      0.38649308      2.22901310      14      0.25618100      0.03548200      0.20357100     -0.06766000      0.16053000      0.01240000
Si             -5.39137785     -2.33174677     -3.16806573      14     -0.49315800     -0.21349700     -0.28934700     -0.05885000     -0.12907000     -0.03337000
Si             -5.36509716     -2.40287909      2.29221787      14     -0.49073000     -0.21997900      0.20929000      0.08916000      0.27621000      0.04763000
Si             -5.37851892      3.07535367     -3.17124857      14     -0.49173400      0.28098000     -0.28961600      0.06119000      0.14697000      0.02080000
Si             -5.52389830      3.19561260      2.35149743      14     -0.50499500      0.29199300      0.21472500      0.10370000     -0.22147000     -0.23943000
Si              0.00077321     -2.40209585     -3.42137398      14     -0.00005700     -0.21968400     -0.31245200     -0.00119000     -0.00236000      0.13690000
Si              0.25467890     -2.65300157      2.47383330      14      0.02318100     -0.24259400      0.22590300     -0.07933000     -0.15879000     -0.18544000
Si              0.19786639      3.13557435     -3.42138628      14      0.01822100      0.28674200     -0.31243000     -0.07961000     -0.11478000      0.08212000
Si              0.10117491      3.07906077      2.23075483      14      0.00940500      0.28159200      0.20372700      0.20059000      0.01352000     -0.01473000
Si             -6.71408930     -6.42561413     -4.50720165      14     -0.61431300     -0.58794500     -0.41166100     -0.05227000     -0.08061000     -0.09540000
Si             -6.76512480     -6.47542380      0.85367748      14     -0.61895500     -0.59248100      0.07789800     -0.02150000     -0.04890000      0.16088000
Si             -6.74969026     -1.04178901     -4.57585329      14     -0.61732200     -0.09559900     -0.41790900     -0.07250000      0.21652000     -0.08483000
Si             -6.61461960     -0.94320339      0.98333189      14     -0.60493700     -0.08655500      0.08976100     -0.03436000     -0.15705000      0.03956000
Si             -1.32285768     -6.47160780     -4.57183527      14     -0.12129400     -0.59190400     -0.41753600      0.15679000     -0.01853000     -0.15869000
Si             -1.22212097     -6.33304814      0.98000236      14     -0.11204700     -0.57920600      0.08946300     -0.23898000     -0.07428000      0.09522000
Si             -1.37407769     -1.08501252     -4.79391242      14     -0.12573200     -0.09930600     -0.43779500      0.02916000     -0.04284000      0.10208000
Si             -2.09567174     -0.21826125      0.50717492      14     -0.19165400     -0.02005400      0.04630400      0.43896000      0.12756000      0.01919000
Si             -4.02395068     -3.74258547     -4.49509568      14     -0.36818000     -0.34246000     -0.41053100     -0.00113000      0.07587000     -0.10265000
Si             -4.01795628     -3.73678762      0.89222308      14     -0.36760400     -0.34190800      0.08144300     -0.04110000     -0.02012000      0.05358000
Si             -4.06556450      1.75349287     -4.61892008      14     -0.37173400      0.16015100     -0.42181700      0.11411000     -0.13210000     -0.01962000
Si             -4.21962443      1.88116594      0.99871143      14     -0.38578800      0.17184200      0.09118900      0.29257000      0.05604000      0.19812000
Si              1.47230824     -3.77281692     -4.62621584      14      0.13444400     -0.34497300     -0.42247700     -0.14098000      0.02197000      0.01546000
Si              1.59441613     -3.93346364      0.99615435      14      0.14563200     -0.35963600      0.09096200      0.03693000      0.31596000      0.22244000
Si              1.52288166      1.81015180     -4.82732628      14      0.13932400      0.16558800     -0.44082000      0.15978000      0.12736000      0.20606000
Si              1.32783988      1.61286019      0.72165169      14      0.12150700      0.14755900      0.06591500     -0.04171000     -0.06237000      0.31132000
Si             -6.73666625     -3.74753216     -7.29111003      14     -0.61626900     -0.34304800     -0.66587900      0.02319000     -0.10347000      0.01879000
Si             -6.80101360     -3.67158760     -1.81648275      14     -0.62212200     -0.33608400     -0.16593200      0.13672000     -0.00658000      0.06968000
Si             -6.80252957      1.72756939     -7.30749764      14     -0.62204100      0.15764400     -0.66735400      0.13607000      0.13357000      0.03029000
Si             -6.79718419      1.71197585     -1.85504485      14     -0.62152500      0.15624000     -0.16943200     -0.02991000      0.05038000     -0.16355000
Si             -1.32347868     -3.82445500     -7.24355653      14     -0.12124300     -0.34983400     -0.66150900     -0.04134000     -0.02621000     -0.02448000
Si             -1.22065206     -3.71308429     -1.86217199      14     -0.11180700     -0.33962300     -0.17007600      0.01103000      0.08916000     -0.07239000
Si             -1.29010310      1.76370142     -7.35018606      14     -0.11793500      0.16120100     -0.67122400     -0.03059000     -0.07592000      0.08848000
Si             -0.74180734      1.20757649     -2.55029715      14     -0.06779500      0.11038800     -0.23289400      0.09449000     -0.00450000     -0.14497000
Si             -4.03897264     -6.44399156     -7.29430787      14     -0.36969200     -0.58951400     -0.66616800     -0.02607000     -0.09331000      0.04319000
Si             -3.95031863     -6.51600876     -1.81883951      14     -0.36156000     -0.59607400     -0.16614400     -0.09810000      0.08212000      0.08074000
Si             -4.10631289     -1.03958667     -7.25084829      14     -0.37560200     -0.09528700     -0.66217800     -0.03891000     -0.00670000      0.04732000
Si             -3.99124615     -0.93587668     -1.86794199      14     -0.36504700     -0.08577600     -0.17060600      0.02624000     -0.01393000      0.07567000
Si              1.44650774     -6.51553499     -7.31213263      14      0.13194500     -0.59580500     -0.66776800      0.05667000      0.09118000      0.06608000
Si              1.43375719     -6.51292373     -1.85667921      14      0.13080700     -0.59554500     -0.16957200      0.01133000      0.04124000     -0.18026000
Si              1.47305021     -1.00325620     -7.34825969      14      0.13462500     -0.09170900     -0.67104500      0.06041000     -0.03771000      0.07690000
Si              0.92152004     -0.45321289     -2.55549723      14      0.08423800     -0.04141400     -0.23336700     -0.02300000      0.03730000     -0.01940000
Si              1.32388265     -0.71084429     -0.35405902      14      0.12103300     -0.06494700     -0.03232900     -0.27210000     -0.44270000     -0.03718000
Si             -0.50658188     -1.81577650      0.50712293      14     -0.04640700     -0.16607300      0.04630100      0.16828000      0.43799000      0.06035000
66
energy=-10763.75814232 enthalpy=-10763.75800000 calculate_stress=True cut_off_energy=250.0 elec_energy_tol=1e-07 fine_grid_scale=4.0 finite_basis_corr=automatic fix_occupancy=False max_scf_cycles=250 mix_history_length=20 mixing_scheme=pulay num_dump_cycles=0 opt_strategy=speed perc_extra_bands=200.0 smearing_width=0.05 spin_polarized=False task=GeometryOptimization xc_functional=PW91 castep_file_name=castep.castep virial="-5.82388903      -1.02143347      -0.27237722      -1.02143347      -5.81095184      -0.34499158      -0.27237722      -0.34499158       3.41732109" cutoff=-1.00000000 nneightol=1.20000000 pbc="T T T" Lattice="11.00433890      -0.03460990      -0.00386190      -0.03460990      11.00380900      -0.00301500      -0.00386190      -0.00301500      11.10102690" Properties=species:S:1:pos:R:3:Z:I:1:frac_pos:R:3:force:R:3
Si             -2.75195670     -2.46451642     -6.08422422      14     -0.25097900     -0.22490900     -0.54822600      0.12472000      0.12724000     -0.00511000
Si             -2.69770555     -2.41366494     -0.54845379      14     -0.24585900     -0.22013500     -0.04955100      0.00039000      0.00848000     -0.19189000
Si             -2.68096308      3.13076308     -6.04622442      14     -0.24292700      0.28360300     -0.54466200     -0.06049000      0.06535000     -0.04680000
Si             -2.72105578      3.25347137     -0.19872380      14     -0.24635000      0.29488800     -0.01790700      0.03359000     -0.18122000     -0.19642000
Si              2.84803570     -2.39074427     -6.04232119      14      0.25793800     -0.21660300     -0.54427200      0.01965000     -0.02709000     -0.11539000
Si              2.97002675     -2.43281893     -0.19871761      14      0.26919700     -0.22024700     -0.01786700     -0.21972000      0.02582000     -0.19753000
Si              2.92359870      3.21218930     -6.08087777      14      0.26640500      0.29260400     -0.54760400     -0.16919000     -0.17675000     -0.06883000
Si              2.78457912      3.07341466     -0.49725278      14      0.25390900      0.28009100     -0.04462900     -0.03881000     -0.07070000     -0.08495000
Si             -5.38040544     -5.09384516     -5.97037811      14     -0.49058500     -0.46460700     -0.53811900     -0.03770000      0.00454000      0.01534000
Si             -5.40031857     -5.11569255     -0.51674249      14     -0.49222800     -0.46646300     -0.04684700     -0.05630000     -0.05694000      0.00724000
Si             -5.48312314      0.37963949     -6.00547275      14     -0.49835600      0.03278500     -0.54114800      0.05898000     -0.06867000     -0.13751000
Si             -5.39982697      0.44233474     -0.49578101      14     -0.49059400      0.03864300     -0.04482100     -0.00450000     -0.02316000      0.13535000
Si              0.09499397     -5.19596139     -6.00554609      14      0.00695700     -0.47232300     -0.54111600     -0.07114000      0.02103000     -0.11702000
Si              0.15316111     -5.11711038     -0.49707106      14      0.01244000     -0.46500400     -0.04489900      0.02640000      0.00866000      0.13489000
Si              0.07107916      0.35846934     -6.11269196      14      0.00636800      0.03244600     -0.55063100     -0.00954000      0.02429000     -0.08421000
Si             -1.01518290      1.61745699     -0.36069350      14     -0.09180300      0.14669300     -0.03248400     -0.35258000     -0.21504000     -0.26354000
Si             -2.62338810     -5.13247255     -3.21203342      14     -0.23996700     -0.46726100     -0.28955600      0.00287000     -0.07949000     -0.10177000
Si             -2.68433857     -5.10695317      2.32662636      14     -0.24532300     -0.46482200      0.20937500      0.24502000      0.06829000      0.00035000
Si             -2.70313639      0.29000678     -3.46005087      14     -0.24567200      0.02549700     -0.31176600      0.02160000      0.05266000     -0.02132000
Si             -2.96314889      0.55080135      2.49970940      14     -0.26903700      0.04927100      0.22509800     -0.04839000     -0.08237000     -0.27929000
Si              2.82573546     -5.12314581     -3.21748316      14      0.25522000     -0.46485600     -0.28987400      0.08838000      0.01059000     -0.06039000
Si              2.93539254     -5.27500867      2.38061138      14      0.26531900     -0.47848700      0.21441200     -0.17363000      0.13833000     -0.29767000
Si              2.86564229      0.47279482     -3.46988652      14      0.26043800      0.04370000     -0.31247100     -0.07558000     -0.02751000     -0.02232000
Si              2.81562548      0.38420761      2.25899467      14      0.25604900      0.03577700      0.20359300     -0.01852000      0.09322000      0.01308000
Si             -5.41944115     -2.33399912     -3.20984363      14     -0.49325600     -0.21373900     -0.28937800     -0.06018000     -0.05990000     -0.10448000
Si             -5.39158863     -2.39887883      2.32695591      14     -0.49056800     -0.21949000      0.20938600      0.05499000      0.21348000      0.00505000
Si             -5.41865678      3.11265445     -3.21322947      14     -0.49162800      0.28124500     -0.28954800      0.05346000      0.09938000     -0.06996000
Si             -5.56616364      3.22562439      2.38039788      14     -0.50482300      0.29160800      0.21433400      0.11485000     -0.19209000     -0.27576000
Si              0.00824814     -2.41657182     -3.46492260      14     -0.00005100     -0.21969800     -0.31218600     -0.02495000      0.03024000      0.03526000
Si              0.26116308     -2.67421516      2.50544572      14      0.02304800     -0.24289200      0.22563700     -0.08082000     -0.07214000     -0.32104000
Si              0.19022512      3.15338022     -3.46731820      14      0.01807800      0.28654300     -0.31225800     -0.05433000     -0.10108000     -0.01598000
Si              0.09703422      3.09784119      2.26039237      14      0.00977500      0.28161100      0.20370000      0.11186000      0.02413000     -0.00375000
Si             -6.73911083     -6.44865804     -4.56763449      14     -0.61439900     -0.58808400     -0.41183400     -0.05681000     -0.07268000     -0.06406000
Si             -6.79136891     -6.49928451      0.87166681      14     -0.61899000     -0.59256500      0.07814500     -0.02649000     -0.04780000      0.22862000
Si             -6.78975200     -1.02514122     -4.63834579      14     -0.61745300     -0.09521900     -0.41807100     -0.05044000      0.17814000     -0.03682000
Si             -6.65469208     -0.93465038      0.99971454      14     -0.60497500     -0.08681700      0.08982200     -0.09498000     -0.16837000      0.05076000