66
Lattice="10.88 0.0 0.0 0.0 10.88 0.0 0.0 0.0 10.88" Properties=species:S:1:pos:R:3:Z:I:1:forces:R:3 cutoff=-1.0 energy=-10764.0023594 nneightol=1.2 pbc="T T T"
Si     -5.58178724      -3.94065687      -2.98863040       14      -0.00042031      -0.00257991       0.00301913 
Si     -5.59653947      -3.95441680       2.45564626       14      -0.00063483       0.00120590      -0.00065314 
Si     -5.59581063       1.50122918      -2.99967293       14       0.00015471      -0.00073453      -0.00004943 
Si     -5.61862474       1.50207879       2.45614621       14      -0.00077096       0.00185411       0.00179767 
Si     -0.18175792      -3.96544494      -3.01047830       14      -0.00000638       0.00005301      -0.00035826 
Si     -0.15082056      -4.00661603       2.51906293       14       0.00036639      -0.00021840       0.00059636 
Si      0.69931382      -0.36857616      -1.26019476       14      -0.00053150       0.00281381      -0.00856059 
Si     -0.20077106       1.51486894       2.46915655       14       0.00130664      -0.00141355       0.00063607 
Si     -2.87346965      -6.64950271      -2.98859429       14      -0.00032843      -0.00203211       0.00166253 
Si     -2.88654068      -6.66430742       2.45653859       14       0.00047197       0.00058320      -0.00155769 
Si     -2.89728886      -1.24912222      -3.01011964       14      -0.00040515      -0.00075828       0.00087394 
Si     -2.93940845      -1.21810531       2.51928524       14       0.00107396      -0.00043599      -0.00063288 
Si      2.56925666      -6.66307792      -2.99935084       14       0.00074248      -0.00010878       0.00020775 
Si      2.57002777      -6.68580538       2.45594274       14       0.00084408      -0.00217160       0.00166518 
Si      2.63237008      -1.21818776      -3.05172106       14       0.00037729       0.00210043      -0.00099384 
Si      2.58250656      -1.26785873       2.47027793       14      -0.00028937      -0.00141321      -0.00270743 
Si     -5.58874401      -6.65698706      -5.70263701       14      -0.00002734       0.00047761       0.00093381 
Si     -5.58971020      -6.65831793      -0.25802467       14      -0.00000661       0.00081037       0.00154998 
Si     -5.59036082      -1.21164994      -5.70275876       14       0.00023651      -0.00005193      -0.00219896 
Si     -5.57346450      -1.21656380      -0.26199216       14       0.00149437       0.00087926       0.00067037 
Si     -0.14299471      -6.65866240      -5.70320099       14      -0.00240937       0.00047915      -0.00103914 
Si     -0.14768404      -6.64145422      -0.26161560       14      -0.00082328       0.00224902      -0.00027874 
Si     -0.14819435      -1.21648083      -5.68628576       14       0.00020689       0.00106463       0.00020903 
Si     -1.14951929      -0.36899394       0.58738885       14       0.00072158       0.00192790      -0.00083741 
Si     -2.87304738      -3.94087195      -5.69594502       14      -0.00115482      -0.00095804       0.00179041 
Si     -2.89826387      -3.96712200      -0.29512015       14       0.00009189       0.00140030      -0.00052186 
Si     -2.88595791       1.49920707      -5.71019019       14      -0.00102318       0.00378247       0.00105724 
Si     -2.93773435       1.56609605      -0.26307141       14      -0.00146771      -0.00200647      -0.00203779 
Si      2.56765985      -3.95424687      -5.71030835       14       0.00199436      -0.00120750       0.00093151 
Si      2.63391651      -4.00559483      -0.26386740       14      -0.00281738       0.00034681       0.00009867 
Si      2.57056291       1.50297351      -5.73126886       14      -0.00048936      -0.00109052      -0.00141133 
Si      2.58339672       1.51488296      -0.31481649       14      -0.00173778      -0.00090384       0.00210246 
Si     -4.27457264      -2.60824049      -7.02715379       14       0.00032349      -0.00108996      -0.00023009 
Si     -4.24346979      -2.58019015      -1.62518177       14       0.00068245       0.00066102      -0.00097355 
Si     -4.24754097       2.85261290      -7.07145396       14      -0.00006858       0.00221404      -0.00100350 
Si     -4.27281379       2.89829907      -1.65457657       14      -0.00247141       0.00179551       0.00065452 
Si      1.19305121      -2.59109916      -7.03803952       14       0.00140724       0.00091640       0.00137099 
Si      1.32422167      -2.69904817      -1.74454890       14       0.00304562      -0.00387817      -0.00012802 
Si      1.19950881       2.86549143      -7.06048760       14      -0.00034035       0.00057185       0.00100614 
Si      1.19471408       2.88863106      -1.63674652       14      -0.00140253      -0.00355210       0.00059357 
Si     -6.95876642      -5.31556704      -7.07154639       14       0.00174421      -0.00043286      -0.00191027 
Si     -6.91273269      -5.34081497      -1.65440044       14      -0.00166865      -0.00127221       0.00126367 
Si     -6.94619571       0.13154418      -7.05924336       14      -0.00114638       0.00001662      -0.00144715 
Si     -6.92362948       0.12580797      -1.63731745       14      -0.00072914       0.00034664       0.00300598 
Si     -1.53995822      -5.34231731      -7.02676694       14      -0.00093126       0.00028138       0.00003156 
Si     -1.51153182      -5.31246814      -1.62528323       14      -0.00205605       0.00330136      -0.00136935 
Si     -1.52257966       0.12500741      -7.03811581       14      -0.00181421       0.00083580       0.00089709 
Si     -1.63135157       0.25723631      -1.74403706       14       0.00128174       0.00050806      -0.00147964 
Si     -4.22617233      -5.29352716      -4.34096877       14       0.00112265      -0.00084249       0.00202128 
Si     -4.23546739      -5.30380093       1.09845022       14      -0.00008588       0.00115268      -0.00023211 
Si     -4.23479631       0.14321436      -4.34784524       14      -0.00058541      -0.00051257      -0.00096331 
Si     -4.25457416       0.15576897       1.10895936       14      -0.00043678      -0.00036022       0.00227951 
Si      1.21117861      -5.30259869      -4.34794559       14      -0.00022520      -0.00138511      -0.00155312 
Si      1.22349781      -5.32149892       1.10913125       14       0.00177224      -0.00117009       0.00108368 
Si      1.22334124       0.15569085      -4.36775585       14      -0.00082057       0.00233309      -0.00076114 
Si      1.28777584       0.21990327       1.17391630       14       0.00103727      -0.00044669       0.00238943 
Si     -6.91544975      -2.60833855      -4.38802653       14       0.00300455      -0.00023725       0.00056922 
Si     -6.92425432      -2.59028819       1.08151094       14       0.00024998      -0.00109627      -0.00205998 
Si     -6.95804663       2.85453151      -4.36026169       14       0.00039284      -0.00031535      -0.00146920 
Si     -6.94640324       2.86594481       1.08501654       14      -0.00097716      -0.00166236      -0.00036073 
Si     -1.51178289      -2.57940667      -4.35634098       14      -0.00103893      -0.00067403       0.00068090 
Si     -1.63325902      -2.70056692       1.21141350       14       0.00099353       0.00048771      -0.00004578 
Si     -1.54068060       2.89719855      -4.38820772       14       0.00175999       0.00159727       0.00210461 
Si     -1.52285993       2.88905101       1.08136936       14      -0.00002018      -0.00253377      -0.00087057 
Si     -0.15016512       1.56532854      -3.05126933       14       0.00040141      -0.00089121      -0.00289905 
Si      0.69828255      -2.21728622       0.58654217       14       0.00286013       0.00138997       0.00384075 
