66
energy=-10763.02937000 enthalpy=-10763.02940000 calculate_stress=True cut_off_energy=250.0 elec_energy_tol=1e-07 fine_grid_scale=4.0 finite_basis_corr=automatic fix_occupancy=False max_scf_cycles=250 mix_history_length=20 mixing_scheme=pulay num_dump_cycles=0 opt_strategy=speed perc_extra_bands=200.0 smearing_width=0.05 spin_polarized=False task=GeometryOptimization xc_functional=PW91 kpoints_mp_grid="4       4       4" castep_file_name=castep.castep virial="11.07200502      -5.78555551      -0.07487200      -5.78555551      10.99744204       0.02491667      -0.07487200       0.02491667      10.17173570" cutoff=-1.00000000 nneightol=1.20000000 pbc="T T T" Lattice="10.92204330       0.00000000       0.00000000       0.00000000      10.92204330       0.00000000       0.00000000       0.00000000      10.92204330" Properties=species:S:1:pos:R:3:Z:I:1:frac_pos:R:3:force:R:3
Si             -5.45114812     -5.45368204     -3.75862460      14     -0.49909600     -0.49932800     -0.34413200     -0.00759000      0.05577000     -0.07286000
Si             -5.44647349     -5.45434828      1.70997694      14     -0.49866800     -0.49938900      0.15656200     -0.05432000      0.08458000     -0.10103000
Si             -5.44805718      0.01404575     -3.78390914      14     -0.49881300      0.00128600     -0.34644700     -0.04836000     -0.06465000     -0.03151000
Si             -5.44926953      0.00562485      1.71229242      14     -0.49892400      0.00051500      0.15677400     -0.01269000      0.09375000      0.03189000
Si              0.01144630     -5.44635335     -3.78762263      14      0.00104800     -0.49865700     -0.34678700     -0.02569000     -0.04035000      0.01783000
Si              0.01235283     -5.44609122      1.71168078      14      0.00113100     -0.49863300      0.15671800     -0.02439000     -0.03896000     -0.06130000
Si              0.00751437      0.01295354     -3.76187937      14      0.00068800      0.00118600     -0.34443000      0.04282000     -0.04625000     -0.02885000
Si             -0.87095650      0.89453719      2.39969306      14     -0.07974300      0.08190200      0.21971100      0.04381000     -0.05521000     -0.18245000
Si             -2.72792230     -2.72475491     -3.77452710      14     -0.24976300     -0.24947300     -0.34558800     -0.04504000     -0.08199000     -0.06573000
Si             -2.72978997     -2.73599369      1.63923487      14     -0.24993400     -0.25050200      0.15008500      0.02732000      0.08107000      0.08939000
Si             -2.73130813      2.76049183     -3.79201329      14     -0.25007300      0.25274500     -0.34718900     -0.00698000     -0.10329000     -0.00338000
Si             -2.87046589      2.89226629      1.75983607      14     -0.26281400      0.26481000      0.16112700      0.12484000     -0.09741000     -0.25099000
Si              2.75839480     -2.73431170     -3.79473288      14      0.25255300     -0.25034800     -0.34743800     -0.06032000     -0.00102000      0.08433000
Si              2.89398105     -2.87198405      1.75809947      14      0.26496700     -0.26295300      0.16096800     -0.14524000      0.12076000     -0.28198000
Si              2.74261245      2.74065740     -3.77558654      14      0.25110800      0.25092900     -0.34568500      0.08651000      0.13780000     -0.06865000
Si              2.74997391      2.75233307      1.64708782      14      0.25178200      0.25199800      0.15080400      0.00920000     -0.07111000      0.00442000
Si             -5.41545489     -2.72510441     -6.48811968      14     -0.49582800     -0.24950500     -0.59403900     -0.10177000     -0.00318000      0.07733000
Si             -5.44531575     -2.72326951     -1.05290682      14     -0.49856200     -0.24933700     -0.09640200      0.02425000     -0.02103000      0.03827000
Si             -5.47926146      2.74197897     -6.49213899      14     -0.50167000      0.25105000     -0.59440700     -0.04965000      0.05019000      0.15095000
Si             -5.46079229      2.74013315     -1.05816032      14     -0.49997900      0.25088100     -0.09688300      0.08998000      0.10549000      0.04978000
Si              0.03834729     -2.73319765     -6.48509427      14      0.00351100     -0.25024600     -0.59376200     -0.10879000     -0.00147000      0.01649000
Si              0.01218900     -2.80945535     -1.06451695      14      0.00111600     -0.25722800     -0.09746500      0.17383000      0.11222000     -0.05099000
Si             -0.01441710      2.75140469     -6.48572775      14     -0.00132000      0.25191300     -0.59382000      0.11343000      0.02039000      0.01563000
Si              0.01418773      2.82889659     -1.06817583      14      0.00129900      0.25900800     -0.09780000     -0.25685000     -0.06882000      0.00950000
Si             -2.72542115     -5.41724610     -6.48841458      14     -0.24953400     -0.49599200     -0.59406600      0.02035000     -0.03531000      0.10693000
Si             -2.72526824     -5.44024792     -1.05154156      14     -0.24952000     -0.49809800     -0.09627700      0.01422000     -0.08964000     -0.00422000
Si             -2.72972444      0.03076740     -6.48569499      14     -0.24992800      0.00281700     -0.59381700     -0.02871000     -0.09950000      0.05952000
Si             -2.80214851      0.00422683     -1.06309708      14     -0.25655900      0.00038700     -0.09733500      0.00942000      0.22722000     -0.05193000
Si              2.74188067     -5.48609866     -6.49214991      14      0.25104100     -0.50229600     -0.59440800      0.06313000      0.03199000      0.13765000
Si              2.74085400     -5.45419537     -1.05253547      14      0.25094700     -0.49937500     -0.09636800      0.04784000     -0.02970000      0.03852000
Si              2.74870695     -0.01108587     -6.47655324      14      0.25166600     -0.00101500     -0.59298000      0.08263000      0.04524000     -0.05907000
Si              2.82167712      0.00750344     -1.06374149      14      0.25834700      0.00068700     -0.09739400      0.01556000     -0.13726000     -0.04686000
Si             -4.07741720     -4.08055183     -2.40578756      14     -0.37332000     -0.37360700     -0.22026900     -0.04184000      0.02764000     -0.08028000
Si             -4.07316853     -4.07088582      3.05259096      14     -0.37293100     -0.37272200      0.27948900     -0.01551000     -0.06563000     -0.08198000
Si             -4.10854503      1.39562961     -2.44716026      14     -0.37617000      0.12778100     -0.22405700      0.01363000     -0.04868000      0.02254000
Si             -4.12037360      1.39072562      3.08520418      14     -0.37725300      0.12733200      0.28247500      0.13035000     -0.09460000     -0.14052000
Si              1.39757374     -4.11418080     -2.44251839      14      0.12795900     -0.37668600     -0.22363200     -0.05559000      0.02539000     -0.07835000
Si              1.39068193     -4.12698144      3.07765705      14      0.12732800     -0.37785800      0.28178400     -0.01497000      0.19075000     -0.04636000
Si              1.37628668      1.38115791     -2.38977584      14      0.12601000      0.12645600     -0.21880300      0.08602000      0.02462000     -0.09964000
Si              1.44665740      1.43989666      3.09975234      14      0.13245300      0.13183400      0.28380700     -0.13793000     -0.08186000      0.01698000
Si             -6.82528316     -6.81810737     -2.40846346      14     -0.62490900     -0.62425200     -0.22051400     -0.03009000     -0.07321000     -0.05418000
Si             -6.82637536     -6.82758771      3.04828767      14     -0.62500900     -0.62512000      0.27909500      0.03352000      0.00974000     -0.01571000
Si             -6.78903289     -1.38064457     -2.44356690      14     -0.62159000     -0.12640900     -0.22372800      0.02787000      0.14522000     -0.04065000
Si             -6.78133285     -1.36879415      3.07978685      14     -0.62088500     -0.12532400      0.28197900     -0.12196000      0.04050000     -0.00157000
Si             -1.37802328     -6.78962269     -2.44690905      14     -0.12616900     -0.62164400     -0.22403400      0.10984000      0.09387000      0.02087000
Si             -1.36321299     -6.77547864      3.07807209      14     -0.12481300     -0.62034900      0.28182200     -0.02924000     -0.13792000     -0.03967000
Si             -1.35936843     -1.36074461     -2.39305245      14     -0.12446100     -0.12458700     -0.21910300     -0.03536000     -0.07433000     -0.06716000
Si             -1.42113259     -1.42396140      3.09446607      14     -0.13011600     -0.13037500      0.28332300      0.09746000      0.07984000      0.01603000
Si             -4.10113988     -6.80283836     -5.14835632      14     -0.37549200     -0.62285400     -0.47137300      0.00744000      0.01347000     -0.04652000
Si             -4.14243613     -6.75414789      0.29121444      14     -0.37927300     -0.61839600      0.02666300     -0.03943000     -0.08044000      0.06370000
Si             -4.08604562     -1.35605905     -5.11873574      14     -0.37411000     -0.12415800     -0.46866100      0.01220000      0.12562000      0.05009000
Si             -4.11974012     -1.35504330      0.33525212      14     -0.37719500     -0.12406500      0.03069500      0.10602000     -0.02681000     -0.03385000
Si              1.36879415     -6.81810737     -5.12026482      14      0.12532400     -0.62425200     -0.46880100     -0.03144000     -0.01031000      0.05506000
Si              1.37730243     -6.78309130      0.33208473      14      0.12610300     -0.62104600      0.03040500     -0.03652000     -0.06799000      0.02484000
Si              1.37919194     -1.35549111     -5.10802121      14      0.12627600     -0.12410600     -0.46768000     -0.04640000     -0.01744000     -0.09285000
Si              1.59684642     -1.57386644      0.24519987      14      0.14620400     -0.14410000      0.02245000      0.00866000     -0.07883000      0.15192000
Si             -6.80426915     -4.09802710     -5.14996186      14     -0.62298500     -0.37520700     -0.47152000      0.04212000     -0.06876000     -0.05047000
Si             -6.75724975     -4.14464238      0.28608108      14     -0.61868000     -0.37947500      0.02619300      0.04198000     -0.03405000      0.18711000
Si             -6.82084881      1.37012664     -5.12122596      14     -0.62450300      0.12544600     -0.46888900      0.07543000     -0.01723000      0.07676000
Si             -6.77807809      1.37854754      0.32974741      14     -0.62058700      0.12621700      0.03019100     -0.16050000     -0.07735000      0.04995000
Si             -1.35019391     -4.07909920     -5.11823332      14     -0.12362100     -0.37347400     -0.46861500      0.02714000     -0.02992000      0.02416000
Si             -1.35677991     -4.11963090      0.32654725      14     -0.12422400     -0.37718500      0.02989800      0.06092000      0.08060000      0.05510000
Si             -1.35262953      1.37434255     -5.10972505      14     -0.12384400      0.12583200     -0.46783600     -0.07633000      0.05268000     -0.13071000
Si             -1.58121697      1.59693379      0.24747166      14     -0.14477300      0.14621200      0.02265800      0.03051000      0.03919000      0.07686000
Si              0.00978615      0.01344504     -0.67402114      14      0.00089600      0.00123100     -0.06171200     -0.01457000      0.00423000      0.83347000
Si              0.88965504     -0.87215792      2.39876468      14      0.08145500     -0.07985300      0.21962600     -0.03616000      0.05166000     -0.19158000
66
energy=-10763.06720501 calculate_stress=True cut_off_energy=250.0 elec_energy_tol=1e-07 fine_grid_scale=4.0 finite_basis_corr=automatic fix_occupancy=False max_scf_cycles=250 mix_history_length=20 mixing_scheme=pulay num_dump_cycles=0 opt_strategy=speed perc_extra_bands=200.0 smearing_width=0.05 spin_polarized=False task=GeometryOptimization xc_functional=PW91 castep_file_name=castep.castep virial="9.07233875      -5.05091740      -0.05828998      -5.05091740       9.00283759       0.02226744      -0.05828998       0.02226744       8.29197547" cutoff=-1.00000000 nneightol=1.20000000 pbc="T T T" Lattice="10.93195700      -0.00518030      -0.00006700      -0.00518030      10.93189030       0.00002230      -0.00006700       0.00002230      10.93115100" Properties=species:S:1:pos:R:3:Z:I:1:frac_pos:R:3:force:R:3
Si             -5.45351917     -5.45582434     -3.76198797      14     -0.49909900     -0.49931000     -0.34415500     -0.00735000      0.05118000     -0.07949000
Si             -5.44903755     -5.45638377      1.71107534      14     -0.49868600     -0.49936200      0.15653000     -0.04964000      0.07705000     -0.10790000
Si             -5.45314959      0.01641613     -3.78714033      14     -0.49882800      0.00126600     -0.34645700     -0.04406000     -0.05962000     -0.03780000
Si             -5.45427277      0.00854597      1.71386302      14     -0.49892800      0.00054500      0.15678400     -0.01212000      0.08578000      0.01926000
Si              0.01397573     -5.45141886     -3.79073760      14      0.00104000     -0.49867000     -0.34678200     -0.02363000     -0.03784000      0.00699000
Si              0.01484922     -5.45113476      1.71287830      14      0.00112300     -0.49864500      0.15669800     -0.02257000     -0.03742000     -0.06474000
Si              0.00768031      0.01278993     -3.76511474      14      0.00070100      0.00117100     -0.34443900      0.03892000     -0.04282000     -0.03825000
Si             -0.87203290      0.89556482      2.40106728      14     -0.07972900      0.08188400      0.21965300      0.04858000     -0.06014000     -0.18877000
Si             -2.72924672     -2.72620948     -3.77789299      14     -0.24977800     -0.24949900     -0.34560900     -0.04384000     -0.07829000     -0.07457000
Si             -2.73088186     -2.73688905      1.64092996      14     -0.24992500     -0.25047700      0.15011400      0.02894000      0.07883000      0.07934000
Si             -2.73509501      2.76391851     -3.79516393      14     -0.25007500      0.25271300     -0.34719000     -0.00560000     -0.09632000     -0.01177000
Si             -2.87401649      2.89589982      1.76045259      14     -0.26277400      0.26477900      0.16104700      0.12057000     -0.09628000     -0.25310000
Si              2.76201098     -2.73809282     -3.79762460      14      0.25253400     -0.25034800     -0.34741100     -0.05620000     -0.00011000      0.06801000
Si              2.89744525     -2.87552672      1.75856903      14      0.26492000     -0.26291500      0.16087900     -0.13935000      0.11800000     -0.28092000
Si              2.74413100      2.74230064     -3.77898665      14      0.25113600      0.25097300     -0.34570700      0.08300000      0.13039000     -0.07706000
Si              2.75118738      2.75326210      1.64847191      14      0.25178500      0.25197500      0.15080600      0.00507000     -0.06921000     -0.00046000
Si             -5.41938788     -2.72501676     -6.49324000      14     -0.49586000     -0.24950600     -0.59401500     -0.09683000     -0.00121000      0.06230000
Si             -5.44887276     -2.72320981     -1.05362580      14     -0.49855400     -0.24934300     -0.09639000      0.02323000     -0.02033000      0.02633000
Si             -5.48567055      2.74721160     -6.49698877      14     -0.50168600      0.25106600     -0.59435900     -0.04169000      0.04369000      0.13016000
Si             -5.46672522      2.74555205     -1.05882871      14     -0.49995000      0.25091400     -0.09686700      0.08148000      0.09723000      0.03902000
Si              0.03933562     -2.73570400     -6.49045324      14      0.00347600     -0.25024700     -0.59375700     -0.10825000     -0.00265000      0.00839000
Si              0.01415112     -2.81160298     -1.06558534      14      0.00117200     -0.25719200     -0.09748100      0.16829000      0.10953000     -0.05735000
Si             -0.01530186      2.75394428     -6.49107573      14     -0.00128400      0.25191900     -0.59381500      0.11114000      0.02072000      0.00765000
Si              0.01198005      2.83119805     -1.06902808      14      0.00121800      0.25898600     -0.09779700     -0.24574000     -0.06956000     -0.00028000
Si             -2.72522012     -5.42098193     -6.49344783      14     -0.24952800     -0.49600400     -0.59403200      0.02105000     -0.03581000      0.08974000
Si             -2.72510035     -5.44417930     -1.05242375      14     -0.24951500     -0.49812700     -0.09627800      0.01184000     -0.08181000     -0.01276000
Si             -2.73227518      0.03172682     -6.49087879      14     -0.24993700      0.00278500     -0.59379800     -0.02853000     -0.09831000      0.04781000
Si             -2.80465502      0.00635554     -1.06414128      14     -0.25655600      0.00046000     -0.09735100      0.01384000      0.21839000     -0.05835000
Si              2.74722987     -5.49224928     -6.49711066      14      0.25106100     -0.50228600     -0.59436400      0.05656000      0.03287000      0.11847000
Si              2.74611014     -5.46051332     -1.05329901      14      0.25096300     -0.49938400     -0.09635500      0.04564000     -0.02943000      0.02656000
Si              2.75153103     -0.01224895     -6.48217850      14      0.25169200     -0.00100000     -0.59299900      0.07854000      0.04786000     -0.06222000
Si              2.82429615      0.00568869     -1.06480978      14      0.25835200      0.00064300     -0.09740900      0.00996000     -0.13441000     -0.05337000
Si             -4.07931019     -4.08221422     -2.40806123      14     -0.37333300     -0.37359900     -0.22029500     -0.04021000      0.02386000     -0.06567000
Si             -4.07500812     -4.07284743      3.05486893      14     -0.37293600     -0.37274300      0.27946300     -0.01534000     -0.06181000     -0.06515000
Si             -4.11286646      1.39866755     -2.44909633      14     -0.37616500      0.12776600     -0.22405000      0.00767000     -0.04639000      0.02937000
Si             -4.12434375      1.39361187      3.08731309      14     -0.37721200      0.12730200      0.28243000      0.12509000     -0.08458000     -0.12310000
Si              1.40061180     -4.11847033     -2.44484541      14      0.12794100     -0.37667800     -0.22365700     -0.05289000      0.02058000     -0.06345000
Si              1.39383872     -4.13069958      3.08005346      14      0.12732400     -0.37779800      0.28177000     -0.01234000      0.18177000     -0.03604000
Si              1.37720154      1.38182185     -2.39212405      14      0.12603800      0.12646300     -0.21883500      0.07927000      0.02184000     -0.08363000
Si              1.44678767      1.44023101      3.10238590      14      0.13240900      0.13180800      0.28381200     -0.13642000     -0.08358000      0.02389000
Si             -6.82832800     -6.82127347     -2.41064064      14     -0.62491800     -0.62427500     -0.22053200     -0.02500000     -0.06676000     -0.04167000
Si             -6.82923167     -6.83046657      3.05080287      14     -0.62499800     -0.62511700      0.27909000      0.03120000      0.00988000     -0.00413000
Si             -6.79442718     -1.37817147     -2.44570783      14     -0.62158100     -0.12636300     -0.22374100      0.02859000      0.13596000     -0.02851000
Si             -6.78728421     -1.36666324      3.08238290      14     -0.62092400     -0.12531100      0.28197800     -0.11689000      0.03570000      0.00327000
Si             -1.37565631     -6.79476764     -2.44887838      14     -0.12613400     -0.62161400     -0.22402700      0.10276000      0.08852000      0.02697000
Si             -1.36135380     -6.78141532      3.08049126      14     -0.12482200     -0.62039300      0.28180900     -0.02944000     -0.13281000     -0.02994000
Si             -1.36006235     -1.36159387     -2.39527197      14     -0.12447200     -0.12461100     -0.21912400     -0.03189000     -0.06684000     -0.05314000
Si             -1.42142736     -1.42429170      3.09710696      14     -0.13008500     -0.13035000      0.28332800      0.09877000      0.08321000      0.02499000
Si             -4.10157147     -6.80699324     -5.15280214      14     -0.37548900     -0.62285000     -0.47138800      0.00822000      0.01204000     -0.03102000
Si             -4.14312549     -6.75855606      0.29168752      14     -0.37928500     -0.61842200      0.02668300     -0.03682000     -0.07422000      0.07541000
Si             -4.08904727     -1.35491682     -5.12280696      14     -0.37410700     -0.12411800     -0.46864500      0.00930000      0.11832000      0.05781000
Si             -4.12246715     -1.35439793      0.33543394      14     -0.37716100     -0.12407300      0.03068400      0.10311000     -0.02082000     -0.02380000
Si              1.37319250     -6.82494680     -5.12436008      14      0.12531400     -0.62425500     -0.46878300     -0.03058000     -0.00658000      0.06281000
Si              1.38163667     -6.79009976      0.33241587      14      0.12609100     -0.62106800      0.03041200     -0.03664000     -0.06951000      0.02993000
Si              1.38095409     -1.35743234     -5.11261986      14      0.12626100     -0.12411100     -0.46771000     -0.04164000     -0.01775000     -0.08222000
Si              1.59907374     -1.57631558      0.24591603      14      0.14620700     -0.14412500      0.02249800      0.00567000     -0.07080000      0.14686000
Si             -6.80832772     -4.09874560     -5.15439785      14     -0.62297200     -0.37522900     -0.47153600      0.03777000     -0.06225000     -0.03409000
Si             -6.76127695     -4.14529386      0.28699756      14     -0.61866700     -0.37948600      0.02625200      0.03806000     -0.03015000      0.18868000
Si             -6.82739598      1.37453178     -5.12517855      14     -0.62447900      0.12544100     -0.46886400      0.07216000     -0.01714000      0.08402000
Si             -6.78545460      1.38274380      0.33024168      14     -0.62063900      0.12619300      0.03020700     -0.15356000     -0.07402000      0.05237000
Si             -1.34935491     -4.08225622     -5.12241392      14     -0.12361200     -0.37348400     -0.46860700      0.02710000     -0.03107000      0.03374000
Si             -1.35584099     -4.12241673      0.32701622      14     -0.12420400     -0.37715900      0.02991600      0.05881000      0.08118000      0.05848000
Si             -1.35475117      1.37639871     -5.11442303      14     -0.12386900      0.12584900     -0.46787700     -0.07127000      0.04948000     -0.11673000
Si             -1.58330190      1.59926608      0.24796426      14     -0.14476300      0.14622500      0.02268300      0.03124000      0.03474000      0.07823000
Si              0.00973811      0.01346210     -0.67167554      14      0.00089100      0.00123200     -0.06144600     -0.01327000      0.00353000      0.83129000
Si              0.89073024     -0.87318633      2.40009093      14      0.08144300     -0.07983700      0.21956500     -0.04181000      0.05653000     -0.19671000
66
energy=-10763.16965446 enthalpy=-10763.16970000 calculate_stress=True cut_off_energy=250.0 elec_energy_tol=1e-07 fine_grid_scale=4.0 finite_basis_corr=automatic fix_occupancy=False max_scf_cycles=250 mix_history_length=20 mixing_scheme=pulay num_dump_cycles=0 opt_strategy=speed perc_extra_bands=200.0 smearing_width=0.05 spin_polarized=False task=GeometryOptimization xc_functional=PW91 castep_file_name=castep.castep virial="-2.06520004      -1.02939268       0.03208989      -1.02939268      -2.10460679       0.00875706       0.03208989       0.00875706      -2.12824587" cutoff=-1.00000000 nneightol=1.20000000 pbc="T T T" Lattice="10.98852800      -0.03474090      -0.00044960      -0.03474090      10.98808030       0.00014960      -0.00044960       0.00014960      10.98312220" Properties=species:S:1:pos:R:3:Z:I:1:frac_pos:R:3:force:R:3
Si             -5.46701945     -5.46804946     -3.78119647      14     -0.49911300     -0.49920800     -0.34428700     -0.00635000      0.02614000     -0.11367000
Si             -5.46362931     -5.46798600      1.71731680      14     -0.49878400     -0.49920800      0.15634600     -0.02417000      0.03569000     -0.14350000
Si             -5.48223653      0.02989527     -3.80558112      14     -0.49891600      0.00114800     -0.34651400     -0.01997000     -0.03143000     -0.07051000
Si             -5.48283239      0.02521395      1.72283929      14     -0.49895100      0.00071500      0.15684200     -0.00990000      0.04229000     -0.04749000
Si              0.02839429     -5.48031450     -3.80846170      14      0.00099300     -0.49874300     -0.34674900     -0.01204000     -0.02377000     -0.05041000
Si              0.02911206     -5.47994551      1.71973906      14      0.00107900     -0.49871600      0.15658700     -0.01267000     -0.02863000     -0.08164000
Si              0.00867718      0.01186544     -3.78359792      14      0.00077900      0.00108700     -0.34449200      0.01800000     -0.02474000     -0.08710000
Si             -0.87816512      0.90144905      2.40887739      14     -0.07964900      0.08178400      0.21932100      0.07420000     -0.08658000     -0.22421000
Si             -2.73676517     -2.73452363     -3.79710887      14     -0.24986000     -0.24964800     -0.34572900     -0.03719000     -0.05797000     -0.11971000
Si             -2.73712934     -2.74193179      1.65057457      14     -0.24987500     -0.25032900      0.15027600      0.03784000      0.06650000      0.02521000
Si             -2.75671584      2.78340132     -3.81314588      14     -0.25008800      0.25252500     -0.34719600      0.00224000     -0.05800000     -0.05604000
Si             -2.89426977      2.91661317      1.76394820      14     -0.26254700      0.26460200      0.16059100      0.09747000     -0.09065000     -0.26244000
Si              2.78262170     -2.75968729     -3.81412799      14      0.25242400     -0.25035000     -0.34725800     -0.03375000      0.00524000     -0.01918000
Si              2.91723403     -2.89568415      1.76116109      14      0.26465600     -0.26269500      0.16036600     -0.10714000      0.10296000     -0.27245000
Si              2.75276794      2.75167662     -3.79839052      14      0.25129300      0.25122300     -0.34583200      0.06346000      0.08949000     -0.12006000
Si              2.75810518      2.75857884      1.65633306      14      0.25180100      0.25184600      0.15081400     -0.01768000     -0.05913000     -0.02617000
Si             -5.44186909     -2.72451369     -6.52240502      14     -0.49604500     -0.24951200     -0.59387400     -0.07020000      0.01007000     -0.01705000
Si             -5.46918403     -2.72292516     -1.05770751      14     -0.49851000     -0.24938200     -0.09632000      0.01855000     -0.01654000     -0.03723000
Si             -5.52223798      2.77708755     -6.52464498      14     -0.50177600      0.25115800     -0.59408500      0.00103000      0.00958000      0.01974000
Si             -5.50059259      2.77652143     -1.06265135      14     -0.49978600      0.25110600     -0.09677700      0.03395000      0.05129000     -0.01878000
Si              0.04499220     -2.74995884     -6.52101511      14      0.00327900     -0.25024900     -0.59372700     -0.10532000     -0.00835000     -0.03412000
Si              0.02532279     -2.82387107     -1.07170628      14      0.00148800     -0.25698800     -0.09757400      0.13790000      0.09494000     -0.09038000
Si             -0.02032089      2.76847233     -6.52159700      14     -0.00107700      0.25195700     -0.59378700      0.09839000      0.02166000     -0.03409000
Si             -0.00070771      2.84434477     -1.07389130      14      0.00075000      0.25886100     -0.09778000     -0.18515000     -0.07270000     -0.05186000
Si             -2.72403800     -5.44225631     -6.52214638      14     -0.24949100     -0.49606800     -0.59383700      0.02468000     -0.03890000     -0.00187000
Si             -2.72416253     -5.46659746     -1.05748328      14     -0.24948900     -0.49829000     -0.09628600     -0.00033000     -0.03879000     -0.05777000
Si             -2.74683467      0.03720899     -6.52045703      14     -0.24998900      0.00260400     -0.59369000     -0.02687000     -0.09160000     -0.01450000
Si             -2.81897250      0.01849041     -1.07014586      14     -0.25653900      0.00087300     -0.09744600      0.03799000      0.17039000     -0.09145000
Si              2.77776948     -5.52733655     -6.52541472      14      0.25117600     -0.50222800     -0.59411400      0.02096000      0.03722000      0.01645000
Si              2.77606417     -5.49660096     -1.05769751      14      0.25105000     -0.49943800     -0.09628500      0.03360000     -0.02882000     -0.03690000
Si              2.76767142     -0.01892500     -6.51426904      14      0.25184200     -0.00091800     -0.59310600      0.05557000      0.06190000     -0.07737000
Si              2.83924601     -0.00466164     -1.07090462      14      0.25838000      0.00039400     -0.09749400     -0.02088000     -0.11925000     -0.08709000
Si             -4.09013875     -4.09163583     -2.42101844      14     -0.37340900     -0.37354800     -0.22044100     -0.03193000      0.00296000      0.01138000
Si             -4.08549737     -4.08403871      3.06784072      14     -0.37296400     -0.37286200      0.27931300     -0.01419000     -0.04068000      0.02493000
Si             -4.13755982      1.41595906     -2.46013001      14     -0.37614000      0.12767700     -0.22400900     -0.02446000     -0.03419000      0.06490000
Si             -4.14694382      1.41005331      3.09935101      14     -0.37697500      0.12713000      0.28217500      0.09696000     -0.03126000     -0.03065000