66
Lattice="10.88 0.0 0.0 0.0 10.88 0.0 0.0 0.0 10.88" Properties=species:S:1:pos:R:3:Z:I:1:forces:R:3 cutoff=-1.0 energy=-10762.6888037 nneightol=1.2 pbc="T T T"
Si     -4.78733808      -6.08205286      -2.02161033       14       0.00175894      -0.00102606       0.00321346 
Si     -4.74949267      -6.12132937       3.41115731       14       0.00029451      -0.00089362       0.00013341 
Si     -4.75334305      -0.70344460      -2.05412732       14      -0.00114566       0.00062616      -0.00164083 
Si     -4.77805773      -0.65476256       3.41907057       14      -0.00001875       0.00218772      -0.00124793 
Si      0.71347019      -6.11670426      -2.05450885       14      -0.00100589       0.00188352      -0.00199891 
Si      0.66436392      -6.09241748       3.41885574       14      -0.00087170      -0.00036823      -0.00172089 
Si      0.73423050      -0.72328925      -2.10021620       14       0.00154573      -0.00142080       0.00436805 
Si      0.70501763      -0.69645604       3.45248153       14      -0.00547019       0.00572308       0.00517801 
Si     -2.07816766      -3.48803814      -2.07884134       14       0.00083273       0.00001403       0.00116574 
Si     -2.06901553      -3.39747843       3.40686161       14       0.00372017       0.00367026      -0.00389027 
Si     -2.17614274       2.18633257      -2.17540193       14       0.00198318      -0.00127127       0.00191358 
Si     -2.07974057       2.09014743       3.49916418       14       0.00069994      -0.00048209       0.00085222 
Si      3.40657797      -3.39759140      -2.06863782       14      -0.00339956       0.00314626       0.00307005 
Si      3.52546415      -3.51480656       3.52469205       14      -0.00199078       0.00168529      -0.00119936 
Si      3.50044100       2.09082172      -2.08099040       14       0.00016034      -0.00067946       0.00060772 
Si      3.40539355       2.07731821       3.40562187       14      -0.00328458      -0.00369288      -0.00341790 
Si     -4.74817514      -3.40057141      -4.74805389       14       0.00001004      -0.00047143       0.00059812 
Si     -4.77865362      -3.41002699       0.66373145       14      -0.00053551       0.00064115      -0.00171617 
Si     -4.78822353       2.03065746      -4.78889759       14       0.00132178      -0.00269107       0.00058018 
Si     -4.75368688       2.06445761       0.71404108       14      -0.00080186       0.00142044       0.00031725 
Si      0.66429794      -3.41032213      -4.77960112       14      -0.00109995       0.00110235       0.00058788 
Si      0.70615086      -3.44279131       0.70666613       14      -0.00548163      -0.00504502      -0.00592635 
Si      0.71402813       2.06446340      -4.75330170       14      -0.00024011       0.00135428      -0.00147524 
Si      0.73065101       2.10778674       0.72997826       14       0.00154070      -0.00331844       0.00111308 
Si     -2.02099344      -6.08196695      -4.78771725       14       0.00185385      -0.00208033       0.00107352 
Si     -2.05500994      -6.11671295       0.71363582       14      -0.00067405       0.00193298      -0.00102474 
Si     -2.05448846      -0.70323194      -4.75304141       14      -0.00065009      -0.00005028      -0.00137490 
Si     -2.09880414      -0.72269290       0.73285042       14       0.00241915      -0.00158699       0.00178478 
Si      3.41116771      -6.12135226      -4.74944764       14      -0.00030897       0.00024885       0.00010505 
Si      3.41898823      -6.09216344       0.66413743       14       0.00005344      -0.00037833      -0.00137137 
Si      3.41976574      -0.65455567      -4.77902134       14      -0.00047044       0.00059808       0.00012069 
Si      3.45258450      -0.69623762       0.70529476       14       0.00445285       0.00543628      -0.00616442 
Si     -3.40196736      -4.74852303      -6.12138133       14      -0.00010224      -0.00048252       0.00022443 
Si     -3.40956287      -4.77777619      -0.65530317       14       0.00106350       0.00044528       0.00078771 
Si     -3.40988390       0.66461869      -6.09252089       14       0.00095345      -0.00098994      -0.00016729 
Si     -3.44334227       0.70626744      -0.69581141       14      -0.00419594      -0.00577580       0.00583698 
Si      2.03080875      -4.78801963      -6.08371425       14      -0.00175383       0.00172760      -0.00101370 
Si      2.06360155      -4.75329201      -0.70391965       14       0.00152843      -0.00149079       0.00028883 
Si      2.06329553       0.71322323      -6.11750143       14       0.00135725      -0.00033762       0.00136265 
Si      2.10960093       0.73343885      -0.72513994       14      -0.00416407       0.00143501      -0.00119515 
Si     -6.08179998      -2.02059223      -6.08259951       14      -0.00165371       0.00232289      -0.00027562 
Si     -6.11743693      -2.05450466      -0.70459797       14       0.00142562      -0.00111655       0.00010645 
Si     -6.12277641       3.41046528      -6.12273667       14      -0.00029022       0.00092898      -0.00025135 
Si     -6.09140596       3.42047365      -0.65483905       14       0.00003945      -0.00077330       0.00108204 
Si     -0.70494326      -2.05438736      -6.11701306       14       0.00039721      -0.00176128       0.00058741 
Si     -0.72080501      -2.09802070      -0.72171985       14      -0.00067698       0.00483448       0.00029274 
Si     -0.65453571       3.42009460      -6.09170497       14       0.00075679      -0.00088839      -0.00034983 
Si     -0.69740238       3.45297373      -0.69713215       14       0.00606065       0.00405202       0.00612631 
Si     -3.39649093      -2.06752787      -3.39631157       14       0.00386296       0.00399733       0.00439293 
Si     -3.48955505      -2.08009345       2.08889345       14      -0.00137196      -0.00001585      -0.00003686 
Si     -3.51548508       3.52474090      -3.51597500       14       0.00128532      -0.00140740       0.00080714 
Si     -3.39770788       3.40738451       2.07840949       14       0.00404938      -0.00371095      -0.00396402 
Si      2.09008472      -2.08069009      -3.49085724       14      -0.00034914       0.00006856      -0.00196480 
Si      2.18477963      -2.17641778       2.18547515       14      -0.00295053       0.00141157      -0.00247949 
Si      2.07825495       3.40768870      -3.39759456       14      -0.00385968      -0.00392802       0.00456072 
Si      2.08774002       3.49772856       2.08742046       14      -0.00037398       0.00086827      -0.00008497 
Si     -6.12154118      -4.74851668      -3.40176177       14      -0.00009424       0.00013691      -0.00043179 
Si     -6.08289351      -4.78783546       2.03005288       14      -0.00140419       0.00092439      -0.00175930 
Si     -6.09170591       0.66446983      -3.41066774       14      -0.00007920      -0.00086833       0.00127336 
Si     -6.11749027       0.71327359       2.06370689       14       0.00088449      -0.00012878       0.00113679 
Si     -0.65452769      -4.77779043      -3.41007950       14       0.00060454      -0.00002112       0.00146469 
Si     -0.70444575      -4.75357061       2.06407148       14       0.00080642      -0.00111227       0.00150016 
Si     -0.69591485       0.70631433      -3.44321872       14       0.00532080      -0.00537185      -0.00486287 
Si     -0.72359105       0.73269784       2.10856415       14      -0.00119207       0.00091054      -0.00515685 
Si     -0.82196662       0.82506349      -0.82439073       14      -0.00449601       0.00062764      -0.00459297 
Si      0.83412207      -0.81497315       0.83095040       14       0.00341408      -0.00072517       0.00414201 
