66
Lattice="10.88 0.0 0.0 0.0 10.88 0.0 0.0 0.0 10.88" Properties=species:S:1:pos:R:3:Z:I:1:forces:R:3 cutoff=-1.0 energy=-10763.1756956 nneightol=1.2 pbc="T T T"
Si     -5.43481665      -5.43461057      -3.75156402       14      -0.00000181      -0.00011102      -0.00139045 
Si     -5.43474418      -5.43478211       1.69518920       14      -0.00004380       0.00009438       0.00081352 
Si     -5.43485258       0.00524725      -3.77647863       14       0.00001326      -0.00000735       0.00127273 
Si     -5.43485642       0.00536949       1.70025242       14      -0.00006831       0.00008516      -0.00265636 
Si      0.00520596      -5.43469752      -3.77651699       14       0.00003623      -0.00000433       0.00134926 
Si      0.00517031      -5.43462013       1.70025696       14      -0.00008047      -0.00001088      -0.00274214 
Si      0.00516193       0.00538023      -3.75022653       14      -0.00003867       0.00000186      -0.00000737 
Si     -0.87232419       0.88282257       2.38681266       14       0.00299380      -0.00296832       0.00596287 
Si     -2.71860583      -2.71857486      -3.76572233       14      -0.00110400      -0.00095637       0.00071372 
Si     -2.72666192      -2.72640729       1.63272382       14       0.00145971       0.00127820       0.00045177 
Si     -2.72947123       2.73994544      -3.78286537       14       0.00062424      -0.00056367      -0.00073446 
Si     -2.86393684       2.87444482       1.74782813       14      -0.00181602       0.00181168       0.00026302 
Si      2.73975279      -2.72928940      -3.78288021       14      -0.00051088       0.00052767      -0.00087730 
Si      2.87462374      -2.86408722       1.74795523       14       0.00157807      -0.00161195       0.00012917 
Si      2.72912559       2.72916072      -3.76576056       14       0.00088534       0.00108977       0.00069361 
Si      2.73690989       2.73714224       1.63269588       14      -0.00137695      -0.00152644       0.00066405 
Si     -5.40406654      -2.71749891      -6.46849275       14      -0.00083906       0.00094701       0.00021184 
Si     -5.42741373      -2.71867107      -1.05560513       14       0.00097421      -0.00008505       0.00096847 
Si     -5.46554799       2.72815769      -6.46852048       14       0.00080183      -0.00101035       0.00018296 
Si     -5.44231428       2.72935111      -1.05563521       14      -0.00074918       0.00001087       0.00110864 
Si      0.02843972      -2.72694490      -6.46158892       14      -0.00164324       0.00081301      -0.00044036 
Si      0.00401080      -2.80028577      -1.06427149       14       0.00074555      -0.00150838      -0.00037424 
Si     -0.01809933       2.73762789      -6.46158084       14       0.00177936      -0.00082163      -0.00034305 
Si      0.00630212       2.81103198      -1.06432009       14      -0.00065481       0.00143866      -0.00047135 
Si     -2.71762552      -5.40397414      -6.46853319       14       0.00095279      -0.00075472       0.00016045 
Si     -2.71885972      -5.42719567      -1.05560028       14      -0.00004439       0.00081195       0.00109511 
Si     -2.72717575       0.02862782      -6.46151452       14       0.00083636      -0.00182412      -0.00046736 
Si     -2.80055216       0.00419089      -1.06431213       14      -0.00137896       0.00063869      -0.00046500 
Si      2.72797883      -5.46540276      -6.46851067       14      -0.00093527       0.00077165       0.00023914 
Si      2.72917675      -5.44214721      -1.05561883       14       0.00002987      -0.00077997       0.00092830 
Si      2.73746094      -0.01800032      -6.46155540       14      -0.00078287       0.00179944      -0.00050448 
Si      2.81072603       0.00649243      -1.06423535       14       0.00145711      -0.00066817      -0.00041796 
Si     -4.06939572      -4.06920333      -2.40432631       14       0.00079843       0.00086388       0.00033561 
Si     -4.06389611      -4.06375969       3.03202113       14       0.00090391       0.00084228       0.00150677 
Si     -4.09896793       1.38824132      -2.43967278       14      -0.00111945       0.00178928       0.00040565 
Si     -4.11230295       1.37630439       3.06477424       14      -0.00026355      -0.00246901       0.00004561 
Si      1.38808297      -4.09872895      -2.43963932       14       0.00170501      -0.00131171       0.00044297 
Si      1.37614883      -4.11214614       3.06480346       14      -0.00243271      -0.00023964       0.00003208 
Si      1.36864012       1.36887584      -2.38714891       14      -0.00095719      -0.00106126      -0.00088644 
Si      1.43132857       1.43145413       3.08097500       14      -0.00010730      -0.00008457      -0.00304789 
Si     -6.80023276      -6.80006050      -2.40436630       14      -0.00090748      -0.00089296       0.00033438 
Si     -6.80577850      -6.80560890       3.03201597       14      -0.00086894      -0.00087032       0.00154451 
Si     -6.77086527      -1.37759067      -2.43959779       14       0.00142800      -0.00180086       0.00024233 
Si     -6.75728889      -1.36564009       3.06481367       14       0.00012271       0.00245937       0.00000079 
Si     -1.37777832      -6.77056141      -2.43965848       14      -0.00177870       0.00122963       0.00032210 
Si     -1.36576292      -6.75720405       3.06474868       14       0.00244937       0.00037525       0.00007764 
Si     -1.35831157      -1.35808674      -2.38711243       14       0.00097245       0.00091211      -0.00092988 
Si     -1.42103737      -1.42078398       3.08099982       14       0.00017184       0.00010071      -0.00302050 
Si     -4.08859987      -6.78087909      -5.13581387       14      -0.00018234       0.00005992      -0.00187205 
Si     -4.13633410      -6.73319614       0.28218182       14       0.00076397      -0.00067651       0.00027073 
Si     -4.07284561      -1.35229919      -5.10550982       14      -0.00039471       0.00054149       0.00087785 
Si     -4.11232323      -1.35773748       0.32499601       14       0.00063759      -0.00138696      -0.00054032 
Si      1.36278515      -6.79665637      -5.10555976       14      -0.00050158       0.00026872       0.00089502 
Si      1.36823183      -6.75720488       0.32498819       14       0.00130922      -0.00056307      -0.00049889 
Si      1.36409186      -1.35363796      -5.09771898       14       0.00109366      -0.00092999      -0.00087317 
Si      1.58750610      -1.57705708       0.24193277       14      -0.00233053       0.00236192      -0.00019310 
Si     -6.78107605      -4.08842807      -5.13583684       14       0.00013374      -0.00003412      -0.00172944 
Si     -6.73315027      -4.13638359       0.28215889       14      -0.00067825       0.00074463       0.00034822 
Si     -6.79671827       1.36283563      -5.10558448       14       0.00026243      -0.00046794       0.00072806 
Si     -6.75743606       1.36846390       0.32497968       14      -0.00054360       0.00125702      -0.00033729 
Si     -1.35235241      -4.07276710      -5.10558910       14       0.00044867      -0.00034939       0.00078711 
Si     -1.35796069      -4.11206650       0.32500654       14      -0.00134777       0.00059869      -0.00042871 
Si     -1.35380982       1.36432988      -5.09775119       14      -0.00099078       0.00097352      -0.00068595 
Si     -1.57683896       1.58732752       0.24175074       14       0.00213494      -0.00219176      -0.00035275 
Si      0.00543504       0.00513518      -0.68037657       14      -0.00017735       0.00016328      -0.00512508 
Si      0.88266053      -0.87220417       2.38680402       14      -0.00285277       0.00288110       0.00600725 
