66
Lattice="10.88 0.0 0.0 0.0 10.88 0.0 0.0 0.0 10.88" Properties=species:S:1:pos:R:3:Z:I:1:forces:R:3 cutoff=-1.0 energy=-10764.0024092 nneightol=1.2 pbc="T T T"
Si     -4.54494585      -4.54453633      -4.55213766       14      -0.00026853      -0.00010440      -0.00015244 
Si     -4.54462032      -4.54415643       0.89161649       14       0.00040436       0.00041406       0.00106151 
Si     -4.54457407       0.88913633      -4.55448652       14       0.00062779       0.00116158       0.00058756 
Si     -4.56048534       0.89504069       0.88810237       14      -0.00148072      -0.00039316      -0.00038433 
Si      0.88867751      -4.54409948      -4.55450063       14       0.00112711       0.00056397       0.00052219 
Si      0.89459606      -4.56006577       0.88812014       14      -0.00036898      -0.00151023      -0.00047421 
Si      0.89458019       0.89500262      -4.53644604       14      -0.00039648      -0.00022359      -0.00151397 
Si      0.04605233       1.89521875       1.73555325       14       0.00124891      -0.00177245       0.00247289 
Si     -7.26059120      -7.26012314      -4.54629696       14       0.00039041       0.00042658       0.00153305 
Si     -7.23646589      -7.23604873       0.85532691       14      -0.00099885      -0.00110552       0.00046794 
Si     -7.24842689      -1.82282397      -4.55982830       14       0.00116333       0.00035475      -0.00017144 
Si     -7.19591671      -1.88660528       0.88550263       14       0.00026090      -0.00080721      -0.00000066 
Si     -1.82324267      -7.24800795      -4.55982261       14       0.00041632       0.00120893      -0.00016308 
Si     -1.88710416      -7.19543237       0.88547950       14      -0.00074813       0.00020111       0.00008430 
Si     -1.82442778      -1.82393616      -4.58288302       14      -0.00051550      -0.00046096      -0.00020677 
Si     -1.83716860      -1.83676523       0.83564663       14       0.00063311       0.00069862      -0.00044524 
Si     -4.53755929      -7.24715791      -7.27456172       14      -0.00066989       0.00016029      -0.00060784 
Si     -4.55264939      -7.26056288      -1.83810659       14       0.00017041       0.00031515       0.00102032 
Si     -4.51620943      -1.82429835      -7.27435832       14       0.00156688       0.00060644       0.00141424 
Si     -4.53794097      -1.82236074      -1.84975878       14      -0.00025275      -0.00063235      -0.00091774 
Si      0.89570984      -7.19502568      -7.21082533       14       0.00089276      -0.00124439      -0.00042922 
Si      0.92722323      -7.23603530      -1.86104335       14       0.00034519      -0.00009472      -0.00036675 
Si      0.94685470      -1.83622555      -7.26094746       14      -0.00062562      -0.00042095      -0.00026997 
Si      0.89567050      -1.88703259      -1.90279259       14      -0.00030927       0.00027017       0.00081457 
Si     -7.24759708      -4.53716729      -7.27457499       14       0.00007810      -0.00056338      -0.00052494 
Si     -7.26099225      -4.55217161      -1.83806323       14       0.00031042       0.00009305       0.00094582 
Si     -7.19545508       0.89617518      -7.21078915       14      -0.00126022       0.00086726      -0.00044823 
Si     -7.23648648       0.92766557      -1.86107641       14      -0.00009485       0.00038539      -0.00036078 
Si     -1.82473956      -4.51570058      -7.27436205       14       0.00053388       0.00137376       0.00158404 
Si     -1.82280086      -4.53753826      -1.84976485       14      -0.00057814      -0.00015654      -0.00088684 
Si     -1.83666346       0.94728240      -7.26094923       14      -0.00045289      -0.00063132      -0.00030194 
Si     -1.88745407       0.89609914      -1.90276260       14       0.00026725      -0.00029810       0.00075193 
Si     -3.17544311      -3.17502617      -3.21084056       14      -0.00101516      -0.00088075      -0.00099876 
Si     -3.18833055      -3.18785894       2.23450057       14       0.00047124       0.00041134       0.00039481 
Si     -3.22088921       2.28593299      -3.23832354       14      -0.00004364       0.00082632       0.00025496 
Si     -3.20984724       2.26988452       2.23047150       14       0.00025737      -0.00101052      -0.00036391 
Si      2.28551037      -3.22046726      -3.23833661       14       0.00080869       0.00004297       0.00032465 
Si      2.26944607      -3.20943103       2.23047579       14      -0.00099039       0.00035659      -0.00032345 
Si      2.25802352       2.25849164      -3.20673936       14      -0.00050235      -0.00066630      -0.00043465 
Si      2.37736124       2.37777873       2.36162420       14       0.00005729       0.00012677      -0.00266128 
Si     -5.90803417      -5.90756304      -3.19055128       14      -0.00024235      -0.00030194       0.00044147 
Si     -5.89902209      -5.89860521       2.24808372       14      -0.00042927      -0.00047589      -0.00124189 
Si     -5.89955653      -0.46544302      -3.19869807       14       0.00081002      -0.00007711       0.00019383 
Si     -5.87978459      -0.47697901       2.25885255       14       0.00081574      -0.00064464       0.00147915 
Si     -0.46585790      -5.89911508      -3.19871003       14      -0.00016922       0.00070379       0.00027313 
Si     -0.47747552      -5.87933285       2.25885719       14      -0.00048617       0.00084746       0.00140125 
Si     -0.47756961      -0.47713546      -3.21878946       14      -0.00079904      -0.00071104      -0.00003782 
Si     -0.54206181      -0.54163053       2.32412226       14       0.00127272       0.00126778      -0.00071327 
Si     -3.17563465      -5.88599677      -5.92157783       14      -0.00059538      -0.00106852      -0.00069488 
Si     -3.22059238      -5.86029105      -0.50495223       14       0.00051145       0.00087096       0.00002561 
Si     -3.18795211      -0.45301726      -5.91121643       14       0.00106484      -0.00005763       0.00066060 
Si     -3.21002305      -0.44760358      -0.48666295       14      -0.00068673      -0.00018066      -0.00003419 
Si      2.28622225      -5.85959293      -5.87797353       14      -0.00016611      -0.00046965      -0.00003051 
Si      2.25770473      -5.89035204      -0.47520060       14       0.00016249       0.00029817      -0.00062796 
Si      2.26897254      -0.44743474      -5.88750016       14      -0.00004656      -0.00029792       0.00008494 
Si      2.37697187      -0.57891535      -0.59601353       14       0.00042822       0.00051126       0.00020898 
Si     -5.88644062      -3.17524358      -5.92158230       14      -0.00107241      -0.00059532      -0.00061725 
Si     -5.86073726      -3.22008091      -0.50491873       14       0.00081749       0.00041550      -0.00003755 
Si     -5.86002949       2.28670844      -5.87796334       14      -0.00052695      -0.00020413       0.00007561 
Si     -5.89078702       2.25811629      -0.47522884       14       0.00023757       0.00028309      -0.00056557 
Si     -0.45349199      -3.18743607      -5.91119274       14       0.00011677       0.00085848       0.00055875 
Si     -0.44801608      -3.20961522      -0.48668924       14      -0.00027297      -0.00067947       0.00006192 
Si     -0.44786365       2.26940082      -5.88751156       14      -0.00029205      -0.00019339       0.00018724 
Si     -0.57938951       2.37743843      -0.59597344       14       0.00071557       0.00050300       0.00014445 
Si      0.04612004       0.04657459      -0.11149736       14       0.00018737       0.00016652      -0.00457417 
Si      1.89478937       0.04647093       1.73553373       14      -0.00181438       0.00134303       0.00255177 
