66
Lattice="10.88 0.0 0.0 0.0 10.88 0.0 0.0 0.0 10.88" Properties=species:S:1:pos:R:3:Z:I:1:forces:R:3 cutoff=-1.0 energy=-10762.8835803 nneightol=1.2 pbc="T T T"
Si     -2.73791248      -2.45477722      -5.96882455       14       0.00080833       0.00074977       0.00112105 
Si     -2.67893470      -2.39559086      -0.53692237       14      -0.00174732      -0.00185724       0.00043687 
Si     -2.64785376       3.08236233      -5.92819319       14      -0.00137005      -0.00049489      -0.00280802 
Si     -2.68541839       3.20869311      -0.19510481       14      -0.00008358      -0.00041052       0.00012114 
Si      2.79905671      -2.36459156      -5.92821943       14      -0.00009917      -0.00128657      -0.00279170 
Si      2.92556587      -2.40228073      -0.19511689       14      -0.00077990      -0.00009697       0.00021342 
Si      2.89891759       3.18203400      -5.96475017       14      -0.00093190      -0.00074302      -0.00124247 
Si      2.75808967       3.04133910      -0.49211092       14      -0.00096204      -0.00107009      -0.00142675 
Si     -5.34371970      -5.06049974      -5.85853974       14       0.00142261       0.00130984       0.00020225 
Si     -5.35806157      -5.07486458      -0.51182721       14      -0.00014365      -0.00023349       0.00039985 
Si     -5.42872123       0.35079934      -5.89279915       14       0.00070352       0.00094440       0.00160200 
Si     -5.34496257       0.41373563      -0.49540294       14       0.00131653       0.00070476       0.00119730 
Si      0.06764281      -5.14550088      -5.89278466       14       0.00087949       0.00046277       0.00184013 
Si      0.13052592      -5.06177099      -0.49536053       14       0.00074755       0.00145101       0.00108635 
Si      0.06158089       0.34480021      -5.99799808       14       0.00112120       0.00132236       0.00250438 
Si     -0.99563405       1.59274183      -0.35713260       14      -0.00139988      -0.00006203       0.00068709 
Si     -2.61216745      -5.08612667      -3.15261510       14       0.00076433      -0.00073433      -0.00081484 
Si     -2.67877674      -5.06084645       2.27200423       14       0.00196218      -0.00100359       0.00111382 
Si     -2.68141068       0.27300125      -3.40214802       14      -0.00094401      -0.00138747      -0.00039887 
Si     -2.93033465       0.53153590       2.44993227       14       0.00211079      -0.00226713      -0.00174615 
Si      2.77092687      -5.06758418      -3.15673078       14       0.00177006      -0.00096430       0.00105848 
Si      2.88600815      -5.21168813       2.33162357       14       0.00009940       0.00065978      -0.00049682 
Si      2.83003479       0.47330122      -3.40259708       14      -0.00079695       0.00031752       0.00045799 
Si      2.77968937       0.37959170       2.20773913       14       0.00034270      -0.00044917       0.00014018 
Si     -5.36936369      -2.32895637      -3.15266305       14      -0.00073017       0.00073691      -0.00092676 
Si     -5.34403200      -2.39562414       2.27203578       14      -0.00121635       0.00177549       0.00106895 
Si     -5.35076328       3.05412445      -3.15664648       14      -0.00109084       0.00188463       0.00089930 
Si     -5.49483359       3.16917392       2.33157501       14       0.00078978      -0.00027352      -0.00048217 
Si     -0.01022624      -2.39823295      -3.40205640       14      -0.00134162      -0.00108089      -0.00036259 
Si      0.24838639      -2.64716282       2.44996973       14      -0.00204934       0.00249485      -0.00309525 
Si      0.19011709       3.11323207      -3.40262844       14       0.00021590      -0.00067646       0.00038432 
Si      0.09640826       3.06289091       2.20784245       14      -0.00030995       0.00036399       0.00009190 
Si     -6.68636540      -6.40320763      -4.48734484       14      -0.00147529      -0.00152015      -0.00111851 
Si     -6.73904472      -6.45588352       0.83921423       14      -0.00125117      -0.00094889      -0.00074662 
Si     -6.72602371      -1.04417721      -4.54957919       14      -0.00027771      -0.00156408      -0.00251726 
Si     -6.58707851      -0.94408758       0.97124135       14       0.00074460      -0.00135158      -0.00093614 
Si     -1.32738392      -6.44276319      -4.54955453       14      -0.00137880      -0.00039277      -0.00247701 
Si     -1.22724019      -6.30394487       0.97126640       14      -0.00147860       0.00080781      -0.00093571 
Si     -1.37120976      -1.08807100      -4.77091415       14      -0.00064933      -0.00035510      -0.00158595 
Si     -2.09279511      -0.22681308       0.50081084       14      -0.00096562      -0.00026231      -0.00146134 
Si     -4.01206303      -3.72885799      -4.47578197       14       0.00099697       0.00091258       0.00037397 
Si     -4.00579494      -3.72261118       0.88355844       14      -0.00005943       0.00011407       0.00082277 
Si     -4.04563834       1.73967825      -4.59912436       14      -0.00038830       0.00038295       0.00228734 
Si     -4.19872183       1.86293540       0.98206703       14      -0.00093253       0.00162797       0.00267555 
Si      1.45645466      -3.76236984      -4.59912359       14       0.00036580      -0.00071858       0.00252051 
Si      1.57981330      -3.91559905       0.98210827       14       0.00132966      -0.00041202       0.00241726 
Si      1.51440426       1.79756909      -4.80238869       14       0.00201470       0.00214855       0.00180297 
Si      1.31657196       1.59983464       0.70650522       14      -0.00090674      -0.00107706      -0.00087001 
Si     -6.70550373      -3.74097651      -7.24806482       14       0.00049229      -0.00078177      -0.00057069 
Si     -6.77023050      -3.65960004      -1.81221476       14       0.00062233       0.00109302       0.00158928 
Si     -6.77495726       1.70863309      -7.26917968       14       0.00109401      -0.00245096       0.00004203 
Si     -6.76906144       1.69768668      -1.85111319       14       0.00029282      -0.00051616      -0.00027246 
Si     -1.32695120      -3.81067118      -7.20595555       14       0.00211873       0.00012019      -0.00093353 
Si     -1.22430472      -3.69629090      -1.85858669       14      -0.00031722      -0.00076475      -0.00054633 
Si     -1.28828152       1.74640065      -7.30509495       14       0.00108841      -0.00027342       0.00085583 
Si     -0.73922317       1.19142733      -2.54099050       14       0.00165341       0.00129410      -0.00009621 
Si     -4.02419631      -6.42225261      -7.24811678       14      -0.00083344       0.00050060      -0.00040726 
Si     -3.94275291      -6.48703958      -1.81215112       14       0.00109475       0.00055674       0.00145322 
Si     -4.09384651      -1.04385142      -7.20593254       14       0.00035959       0.00302869      -0.00098314 
Si     -3.97954434      -0.94103105      -1.85871932       14      -0.00074915      -0.00050915      -0.00048974 
Si      1.42548780      -6.49176919      -7.26910089       14      -0.00248028       0.00085155       0.00005038 
Si      1.41446596      -6.48583178      -1.85114510       14      -0.00054004       0.00043601      -0.00035194 
Si      1.46315167      -1.00500137      -7.30513311       14      -0.00011443       0.00095467       0.00062350 
Si      0.90822595      -0.45604538      -2.54096145       14       0.00142943       0.00181802      -0.00004228 
Si      1.30960231      -0.71246938      -0.35711272       14       0.00001403      -0.00153221       0.00060953 
Si     -0.50996203      -1.80968160       0.50073919       14       0.00002890      -0.00130299      -0.00081636 
