66
energy=-10763.00163800 enthalpy=-10763.00160000 calculate_stress=True cut_off_energy=250.0 elec_energy_tol=1e-07 fine_grid_scale=4.0 finite_basis_corr=automatic fix_occupancy=False max_scf_cycles=250 mix_history_length=20 mixing_scheme=pulay num_dump_cycles=0 opt_strategy=speed perc_extra_bands=200.0 smearing_width=0.05 spin_polarized=False task=GeometryOptimization xc_functional=PW91 kpoints_mp_grid="4       4       4" castep_file_name=castep.castep virial="17.64143548     -13.45172619       5.46276912     -13.45172619      21.48722312     -12.35118830       5.46276912     -12.35118830      20.47607298" cutoff=-1.00000000 nneightol=1.20000000 pbc="T T T" Lattice="10.92204330       0.00000000       0.00000000       0.00000000      10.92204330       0.00000000       0.00000000       0.00000000      10.92204330" Properties=species:S:1:pos:R:3:Z:I:1:frac_pos:R:3:force:R:3
Si             -3.39694114     -6.10967088     -6.12666558      14     -0.31101700     -0.55938900     -0.56094500      0.03077000      0.09801000     -0.06677000
Si             -3.48702615     -6.09147476     -0.63588136      14     -0.31926500     -0.55772300     -0.05822000      0.03101000      0.04312000     -0.23856000
Si             -3.40743722     -0.68861299     -6.10383851      14     -0.31197800     -0.06304800     -0.55885500     -0.03329000      0.03346000     -0.02229000
Si             -3.50288496     -0.60996335     -0.73261790      14     -0.32071700     -0.05584700     -0.06707700     -0.06543000      0.40224000     -0.10400000
Si              2.08831652     -6.19659942     -6.13600393      14      0.19120200     -0.56734800     -0.56180000     -0.23412000     -0.03715000      0.05440000
Si              2.05343152     -6.12580274     -0.66493400      14      0.18800800     -0.56086600     -0.06088000      0.07585000      0.07062000      0.06475000
Si              2.09477145     -0.67863024     -6.10569526      14      0.19179300     -0.06213400     -0.55902500     -0.05375000      0.15501000     -0.09959000
Si              2.45224993     -1.24941622     -0.28176687      14      0.22452300     -0.11439400     -0.02579800      0.15329000      0.14606000     -0.12031000
Si             -6.05714677     -3.44732453     -6.05703755      14     -0.55458000     -0.31563000     -0.55457000     -0.07059000      0.00632000     -0.10963000
Si             -6.08140463     -3.39612199     -0.67960230      14     -0.55680100     -0.31094200     -0.06222300     -0.08980000      0.02717000     -0.18752000
Si             -6.16407358      2.06434264     -6.19173911      14     -0.56437000      0.18900700     -0.56690300     -0.04588000     -0.03586000      0.00221000
Si             -6.14748299      2.02834358     -0.67529902      14     -0.56285100      0.18571100     -0.06182900      0.03432000     -0.05067000     -0.06663000
Si             -0.66028121     -3.40386572     -6.07159664      14     -0.06045400     -0.31165100     -0.55590300     -0.14450000     -0.05795000      0.00600000
Si             -0.60462247     -3.45196640     -0.63638377      14     -0.05535800     -0.31605500     -0.05826600     -0.07361000      0.01311000      0.00703000
Si             -0.67615093      2.00795213     -6.15154599      14     -0.06190700      0.18384400     -0.56322300      0.14364000      0.02992000     -0.03270000
Si             -0.88939291      2.55022066     -0.90613640      14     -0.08143100      0.23349300     -0.08296400     -0.13274000     -0.48917000     -0.34077000
Si             -3.31073345     -3.34782471     -3.32229990      14     -0.30312400     -0.30652000     -0.30418300     -0.19132000     -0.03488000     -0.02084000
Si             -3.39415602     -3.43908931      2.02951224      14     -0.31076200     -0.31487600      0.18581800     -0.05953000      0.06027000      0.11574000
Si             -3.46380589      2.07904371     -3.51150245      14     -0.31713900      0.19035300     -0.32150600      0.02025000      0.12811000      0.08274000
Si             -3.45080866      2.13295491      2.15523588      14     -0.31594900      0.19528900      0.19732900     -0.00589000     -0.01500000     -0.11604000
Si              2.03560674     -3.44364380     -3.43016600      14      0.18637600     -0.31529300     -0.31405900      0.07855000      0.00081000     -0.03380000
Si              2.30837385     -3.70051933      2.30534845      14      0.21135000     -0.33881200      0.21107300     -0.24659000      0.00909000     -0.21974000
Si              2.13913679      2.15916782     -3.49127483      14      0.19585500      0.19768900     -0.31965400     -0.15114000     -0.06261000     -0.00417000
Si              1.98204504      1.96167543      1.94186284      14      0.18147200      0.17960700      0.17779300     -0.06787000      0.00426000     -0.04972000
Si             -6.11162593     -6.11839759     -3.37020398      14     -0.55956800     -0.56018800     -0.30856900     -0.00354000      0.00114000     -0.00487000
Si             -6.15260543     -6.19481913      2.06689840      14     -0.56332000     -0.56718500      0.18924100      0.13744000      0.02927000     -0.19803000
Si             -6.14137757     -0.67176027     -3.43731994      14     -0.56229200     -0.06150500     -0.31471400     -0.07849000      0.08262000     -0.11460000
Si             -6.06690016     -0.72675276      2.15666667      14     -0.55547300     -0.06654000      0.19746000      0.09971000      0.16818000     -0.05325000
Si             -0.65591239     -6.08181967     -3.51229976      14     -0.06005400     -0.55683900     -0.32157900     -0.13199000     -0.07194000      0.00062000
Si             -0.65975695     -6.11468410      2.08313947      14     -0.06040600     -0.55984800      0.19072800      0.08522000      0.00773000      0.08518000
Si             -0.68732418     -0.63795655     -3.41014589      14     -0.06293000     -0.05841000     -0.31222600      0.07219000      0.15853000     -0.02649000
Si             -0.36129027     -1.14956690      2.40082895      14     -0.03307900     -0.10525200      0.21981500      0.02807000     -0.15920000     -0.11054000
Si             -2.05598727     -4.72057265     -4.75545765      14     -0.18824200     -0.43220600     -0.43540000      0.25664000      0.00389000     -0.12082000
Si             -2.02387647     -4.79543233      0.69063356      14     -0.18530200     -0.43906000      0.06323300     -0.01320000     -0.00868000     -0.07715000
Si             -2.05713409      0.68445169     -4.78781967      14     -0.18834700      0.06266700     -0.43836300      0.03117000     -0.15392000      0.01846000
Si             -2.42078352      1.25267099      0.30106612      14     -0.22164200      0.11469200      0.02756500     -0.11578000     -0.13738000      0.12262000
Si              3.42899734     -4.81313696     -4.76689303      14      0.31395200     -0.44068100     -0.43644700     -0.01658000      0.02820000      0.02385000
Si              3.51925710     -4.82877733      0.66504322      14      0.32221600     -0.44211300      0.06089000     -0.03174000     -0.06725000      0.17355000
Si              3.44406976      0.69470749     -4.79572723      14      0.31533200      0.06360600     -0.43908700      0.03671000      0.00136000      0.11088000
Si              3.54438873      0.60634816      0.76198727      14      0.32451700      0.05551600      0.06976600     -0.03799000     -0.28670000      0.01186000
Si             -4.72450458     -2.05501521     -4.71308012      14     -0.43256600     -0.18815300     -0.43152000      0.07507000      0.03000000      0.07594000
Si             -4.73490237     -2.02328668      0.70412229      14     -0.43351800     -0.18524800      0.06446800     -0.10028000      0.06007000      0.03922000
Si             -4.83069961      3.45737281     -4.83722007      14     -0.44228900      0.31655000     -0.44288600      0.02332000     -0.08498000      0.07808000
Si             -4.80253166      3.39652610      0.71107963      14     -0.43971000      0.31097900      0.06510500      0.01905000      0.03680000      0.19036000
Si              0.70900444     -1.99961861     -4.74796513      14      0.06491500     -0.18308100     -0.43471400     -0.13817000     -0.11489000      0.05390000
Si              0.92352429     -2.54755568      0.92732516      14      0.08455600     -0.23324900      0.08490400      0.10251000      0.55945000      0.40822000
Si              0.69420507      3.40141918     -4.83092897      14      0.06356000      0.31142700     -0.44231000      0.11931000      0.13783000      0.07073000
Si              0.64266395      3.45611677      0.66178845      14      0.05884100      0.31643500      0.06059200     -0.02794000     -0.03788000     -0.01880000
Si             -1.95144148     -1.95661852     -1.91708073      14     -0.17867000     -0.17914400     -0.17552400      0.14315000     -0.05614000      0.02442000
Si             -2.11309864     -2.15313885      3.52182378      14     -0.19347100     -0.19713700      0.32245100      0.27944000      0.03357000     -0.05343000
Si             -2.27627397      3.70295495     -2.28452011      14     -0.20841100      0.33903500     -0.20916600      0.25156000      0.03289000      0.28906000
Si             -1.99915988      3.44865702      3.46114091      14     -0.18303900      0.31575200      0.31689500     -0.16946000     -0.03694000     -0.04851000
Si              3.48713537     -2.13413449     -2.13437478      14      0.31927500     -0.19539700     -0.19541900      0.06086000      0.04238000      0.22211000
Si              3.50111559     -2.07375744      3.53247278      14      0.32055500     -0.18986900      0.32342600     -0.06401000     -0.12088000     -0.08029000
Si              3.42948883      3.44888638     -2.00557112      14      0.31399700      0.31577300     -0.18362600      0.08321000     -0.10415000     -0.10541000
Si              3.34368526      3.35658419      3.34268043      14      0.30614100      0.30732200      0.30604900      0.12800000      0.00621000      0.08922000
Si             -4.74029786     -4.72343422     -2.03577057      14     -0.43401200     -0.43246800     -0.18639100     -0.01659000      0.01139000      0.14018000
Si             -4.77386130     -4.78925045      3.39319488      14     -0.43708500     -0.43849400      0.31067400     -0.02186000     -0.09828000      0.06359000
Si             -4.81941714      0.73814445     -2.13495365      14     -0.44125600      0.06758300     -0.19547200     -0.03528000     -0.27564000      0.14833000
Si             -4.74152113      0.67352964      3.46579370      14     -0.43412400      0.06166700      0.31732100      0.03470000     -0.02112000      0.05855000
Si              0.68865667     -4.80797084     -2.05826998      14      0.06305200     -0.44020800     -0.18845100     -0.02168000      0.03351000     -0.06935000
Si              0.69051342     -4.83749312      3.53799933      14      0.06322200     -0.44291100      0.32393200      0.12507000      0.03974000     -0.05686000
Si              0.39241809      1.16183236     -2.36746211      14      0.03592900      0.10637500     -0.21676000     -0.04413000      0.03289000      0.03244000
Si              0.71921655      0.64425857      3.43426176      14      0.06585000      0.05898700      0.31443400     -0.02072000     -0.14156000      0.09607000
Si              1.00358287      0.45896610     -0.33190997      14      0.09188600      0.04202200     -0.03038900     -0.30785000     -0.40996000      0.08060000
Si             -0.96498437     -0.45059982      0.36055849      14     -0.08835200     -0.04125600      0.03301200      0.30325000      0.40553000     -0.06945000
66
energy=-10763.15786698 calculate_stress=True cut_off_energy=250.0 elec_energy_tol=1e-07 fine_grid_scale=4.0 finite_basis_corr=automatic fix_occupancy=False max_scf_cycles=250 mix_history_length=20 mixing_scheme=pulay num_dump_cycles=0 opt_strategy=speed perc_extra_bands=200.0 smearing_width=0.05 spin_polarized=False task=GeometryOptimization xc_functional=PW91 castep_file_name=castep.castep virial="14.14256283     -11.67763732       4.80927531     -11.67763732      17.71862358     -10.77245734       4.80927531     -10.77245734      16.61555397" cutoff=-1.00000000 nneightol=1.20000000 pbc="T T T" Lattice="10.93783920      -0.01204450       0.00489130      -0.01204450      10.94128270      -0.01105910       0.00489130      -0.01105910      10.94037730" Properties=species:S:1:pos:R:3:Z:I:1:frac_pos:R:3:force:R:3
Si             -3.39775122     -6.11014431     -6.13251492      14     -0.31100700     -0.55935800     -0.56096600      0.01042000      0.09891000     -0.08115000
Si             -3.48552766     -6.09757281     -0.63317404      14     -0.31925500     -0.55771000     -0.05829600      0.00801000      0.05632000     -0.25338000
Si             -3.41444888     -0.67977833     -6.11499002      14     -0.31198800     -0.06303800     -0.55886200     -0.04743000      0.03828000     -0.04361000
Si             -3.50783782     -0.60503203     -0.73516134      14     -0.32073800     -0.05571900     -0.06711000     -0.07814000      0.39239000     -0.11876000
Si              2.09460212     -6.20373538     -6.13889769      14      0.19112700     -0.56736000     -0.56178200     -0.24840000     -0.01828000      0.02836000
Si              2.06312119     -6.13794446     -0.65869827      14      0.18803200     -0.56084400     -0.06085900      0.05587000      0.07145000      0.03692000
Si              2.09562831     -0.67540577     -6.11466989      14      0.19177600     -0.06208400     -0.55905700     -0.06855000      0.15011000     -0.11046000
Si              2.45757237     -1.25352198     -0.28029257      14      0.22457100     -0.11434700     -0.02583600      0.10197000      0.18387000     -0.10973000
Si             -6.06506959     -3.44056183     -6.06681012      14     -0.55460300     -0.31562800     -0.55460500     -0.08963000      0.01989000     -0.12623000
Si             -6.08707660     -3.39462127     -0.68067355      14     -0.55683000     -0.31093400     -0.06228200     -0.10154000      0.02808000     -0.19744000
Si             -6.17820163      2.08092584     -6.20698341      14     -0.56438500      0.18899600     -0.56690300     -0.05800000     -0.02977000     -0.01201000
Si             -6.15879253      2.03919368     -0.68146896      14     -0.56284000      0.18569400     -0.06185000      0.01510000     -0.04358000     -0.07604000
Si             -0.66070445     -3.40318218     -6.07861583      14     -0.06050000     -0.31166900     -0.55590100     -0.15911000     -0.04881000     -0.01773000
Si             -0.60222678     -3.45669197     -0.63419485      14     -0.05538100     -0.31605100     -0.05826300     -0.07311000      0.02471000      0.00484000
Si             -0.68159503      2.01856158     -6.16431736      14     -0.06186100      0.18385300     -0.56323300      0.11603000      0.03997000     -0.04831000
Si             -0.89435534      2.55490610     -0.91182897      14     -0.08147300      0.23333700     -0.08307300     -0.15344000     -0.46288000     -0.35036000
Si             -3.31398465     -3.34682655     -3.32604638      14     -0.30318500     -0.30653100     -0.30419000     -0.19899000     -0.02822000     -0.04164000
Si             -3.39457124     -3.44325163      2.03528574      14     -0.31078100     -0.31485700      0.18585500     -0.07346000      0.06602000      0.09149000
Si             -3.47261541      2.09052957     -3.52076927      14     -0.31713300      0.19039400     -0.32148000      0.00039000      0.12968000      0.06504000
Si             -3.45720832      2.13828105      2.15474384      14     -0.31595100      0.19528400      0.19729200     -0.03406000      0.00073000     -0.13703000
Si              2.04108549     -3.44847069     -3.43163477      14      0.18640100     -0.31529200     -0.31406900      0.06034000      0.01268000     -0.04747000
Si              2.31596109     -3.71188321      2.31323274      14      0.21127100     -0.33880900      0.21100300     -0.27343000      0.03016000     -0.25147000
Si              2.13776112      2.16392912     -3.49838554      14      0.19580700      0.19766900     -0.31965600     -0.17313000     -0.04365000     -0.03028000
Si              1.98338814      1.96099035      1.94385962      14      0.18145100      0.17960800      0.17777800     -0.07975000      0.00564000     -0.06098000
Si             -6.11523788     -6.11901209     -3.37242502      14     -0.55956900     -0.56018700     -0.30857100     -0.02276000      0.01051000     -0.02774000
Si             -6.15326565     -6.20092978      2.07319599      14     -0.56327600     -0.56717500      0.18917800      0.11231000      0.04078000     -0.21415000
Si             -6.15133199     -0.66239450     -3.44555432      14     -0.56231700     -0.06147800     -0.31475000     -0.09334000      0.08538000     -0.12850000
Si             -6.07355780     -0.72293565      2.15811936      14     -0.55544100     -0.06648600      0.19744300      0.07530000      0.17335000     -0.06800000
Si             -0.65218619     -6.08850438     -3.51232021      14     -0.06009600     -0.55686200     -0.32157800     -0.15405000     -0.05014000     -0.01984000
Si             -0.65272875     -6.12681571      2.09282774      14     -0.06037800     -0.55984600      0.19075500      0.05847000      0.01395000      0.05977000
Si             -0.68889098     -0.63431161     -3.41562006      14     -0.06290700     -0.05835900     -0.31223400      0.04468000      0.15953000     -0.04677000
Si             -0.35937102     -1.15417121      2.40547891      14     -0.03307000     -0.10530200      0.21978000      0.01731000     -0.13869000     -0.16761000
Si             -2.05498799     -4.72179524     -4.75999656      14     -0.18816000     -0.43220500     -0.43543800      0.26872000     -0.01088000     -0.09043000
Si             -2.02124977     -4.80236858      0.69547955      14     -0.18530600     -0.43906200      0.06320900      0.00254000     -0.01531000     -0.04840000
Si             -2.06289816      0.69223750     -4.79740468      14     -0.18833700      0.06261800     -0.43835700      0.04786000     -0.14962000      0.03745000
Si             -2.42593511      1.25676092      0.29964597      14     -0.22167900      0.11464800      0.02760400     -0.06697000     -0.17491000      0.11514000
Si              3.43707472     -4.82047163     -4.76840922      14      0.31394700     -0.44067200     -0.43644000      0.00335000      0.01719000      0.04219000
Si              3.52986080     -4.84206789      0.67322690      14      0.32220600     -0.44213400      0.06094500     -0.00819000     -0.07711000      0.19444000
Si              3.44626833      0.69698859     -4.80255552      14      0.31534400      0.06360600     -0.43905200      0.04937000     -0.00682000      0.12316000
Si              3.54905722      0.60172956      0.76428444      14      0.32450500      0.05542400      0.06977000     -0.01639000     -0.28764000      0.03377000
Si             -4.73091932     -2.04855498     -4.72076403      14     -0.43254200     -0.18814400     -0.43149600      0.08369000      0.02273000      0.08608000
Si             -4.73955380     -2.02213405      0.70536337      14     -0.43355000     -0.18522900      0.06448000     -0.07549000      0.05193000      0.05016000
Si             -4.84358791      3.47338139     -4.85073021      14     -0.44228200      0.31652200     -0.44286100      0.04668000     -0.09165000      0.09552000
Si             -4.81283863      3.40721579      0.70735062      14     -0.43970400      0.31099100      0.06516600      0.03701000      0.02968000      0.19918000
Si              0.70962789     -1.99950886     -4.75339584      14      0.06487100     -0.18311700     -0.43469600     -0.11133000     -0.11678000      0.06749000
Si              0.92844403     -2.55205493      0.93329535      14      0.08458900     -0.23307100      0.08503400      0.12505000      0.52818000      0.41307000
Si              0.68970982      3.41201756     -4.84193111      14      0.06359800      0.31147100     -0.44228800      0.13707000      0.12250000      0.09062000
Si              0.63998014      3.46069487      0.65962211      14      0.05883200      0.31642300      0.06058600     -0.01984000     -0.04762000     -0.01503000
Si             -1.95246119     -1.95615866     -1.91910361      14     -0.17862400     -0.17916100     -0.17551600      0.14823000     -0.05246000      0.03756000
Si             -2.11122981     -2.15804793      3.52878376      14     -0.19338200     -0.19712600      0.32243400      0.29175000      0.01735000     -0.02319000
Si             -2.28379726      3.71441955     -2.29211700      14     -0.20833100      0.33904600     -0.20907400      0.27868000      0.00864000      0.31469000
Si             -2.00489478      3.45331240      3.46239938      14     -0.18309300      0.31574100      0.31688000     -0.14296000     -0.04592000     -0.02826000
Si              3.49379515     -2.13942600     -2.13346924      14      0.31929500     -0.19538300     -0.19534900      0.08337000      0.02595000      0.23257000
Si              3.50982947     -2.08526338      3.54179699      14      0.32053500     -0.18990700      0.32340100     -0.04152000     -0.12344000     -0.06095000
Si              3.43003181      3.45284946     -2.01126551      14      0.31402300      0.31574000     -0.18366000      0.09349000     -0.10745000     -0.08172000
Si              3.34675410      3.35544602      3.34670770      14      0.30618100      0.30732400      0.30607800      0.14332000      0.00023000      0.10483000
Si             -4.74291082     -4.72442254     -2.03603579      14     -0.43401700     -0.43246400     -0.18634600     -0.00155000     -0.00261000      0.16075000
Si             -4.77404050     -4.79619744      3.40182133      14     -0.43709200     -0.43852500      0.31069400     -0.00206000     -0.10117000      0.08140000
Si             -4.82827632      0.74595794     -2.14092804      14     -0.44126700      0.06749500     -0.19542500     -0.01838000     -0.27236000      0.15404000
Si             -4.74744866      0.67636961      3.46901404      14     -0.43411300      0.06166100      0.31734000      0.05276000     -0.02788000      0.07794000
Si              0.69395616     -4.81500577     -2.05678917      14      0.06304500     -0.44019800     -0.18847300      0.00035000      0.02494000     -0.04543000
Si              0.69885749     -4.85021637      3.54894885      14      0.06326100     -0.44289800      0.32391400      0.14683000      0.02177000     -0.03046000
Si              0.39049096      1.16595283     -2.37231669      14      0.03591500      0.10638500     -0.21674900     -0.02872000      0.02132000      0.09448000
Si              0.72100836      0.64063034      3.44003596      14      0.06584300      0.05894200      0.31446500      0.00294000     -0.14528000      0.10916000
Si              1.00330931      0.45757152     -0.33219699      14      0.09178800      0.04189100     -0.03036300     -0.27818000     -0.42201000      0.01562000
Si             -0.96466228     -0.44928399      0.36094619      14     -0.08825500     -0.04112700      0.03299000      0.27264000      0.41814000     -0.00716000
66
energy=-10763.56760651 enthalpy=-10763.56760000 calculate_stress=True cut_off_energy=250.0 elec_energy_tol=1e-07 fine_grid_scale=4.0 finite_basis_corr=automatic fix_occupancy=False max_scf_cycles=250 mix_history_length=20 mixing_scheme=pulay num_dump_cycles=0 opt_strategy=speed perc_extra_bands=200.0 smearing_width=0.05 spin_polarized=False task=GeometryOptimization xc_functional=PW91 castep_file_name=castep.castep virial="-3.87563437      -2.57245163       1.63044883      -2.57245163      -1.80860141      -2.70766233       1.63044883      -2.70766233      -3.39307944" cutoff=-1.00000000 nneightol=1.20000000 pbc="T T T" Lattice="11.02397740      -0.07772550       0.03156440      -0.07772550      11.04619870      -0.07136650       0.03156440      -0.07136650      11.04035620" Properties=species:S:1:pos:R:3:Z:I:1:frac_pos:R:3:force:R:3
Si             -3.40219700     -6.11267920     -6.16445299      14     -0.31095400     -0.55918700     -0.56108200     -0.08445000      0.09276000     -0.14352000
Si             -3.47737533     -6.13074696     -0.61846928      14     -0.31920100     -0.55763500     -0.05871100     -0.09836000      0.11435000     -0.31305000
Si             -3.45273427     -0.63154885     -6.17582100      14     -0.31204600     -0.06298000     -0.55890100     -0.10785000      0.05279000     -0.13955000
Si             -3.53490172     -0.57802122     -0.74911749      14     -0.32085100     -0.05502000     -0.06729100     -0.13882000      0.33232000     -0.18410000
Si              2.12886702     -6.24262740     -6.15472049      14      0.19072000     -0.56742500     -0.56168800     -0.30501000      0.06967000     -0.09450000
Si              2.11598056     -6.20412542     -0.62471254      14      0.18816400     -0.56072100     -0.06074700     -0.03471000      0.06231000     -0.09130000
Si              2.10026190     -0.65780914     -6.16363652      14      0.19168300     -0.06181500     -0.55923000     -0.13553000      0.11522000     -0.15486000
Si              2.48665487     -1.27591085     -0.27230678      14      0.22483800     -0.11409300     -0.02604500     -0.15741000      0.36915000     -0.05480000
Si             -6.10825618     -3.40365797     -6.12013054      14     -0.55472500     -0.31561700     -0.55479600     -0.17563000      0.07813000     -0.19867000
Si             -6.11801349     -3.38634840     -0.68660870      14     -0.55698600     -0.31088600     -0.06260800     -0.15156000      0.02629000     -0.23263000
Si             -6.25521712      2.17132230     -6.29006734      14     -0.56446400      0.18893300     -0.56689900     -0.10812000     -0.00639000     -0.07223000
Si             -6.22045624      2.09840541     -0.71513658      14     -0.56278000      0.18560600     -0.06196600     -0.07029000     -0.01823000     -0.11189000
Si             -0.66303151     -3.39947954     -6.11689124      14     -0.06075100     -0.31177000     -0.55589000     -0.21909000     -0.00824000     -0.12978000
Si             -0.58920519     -3.48243645     -0.62231009      14     -0.05550900     -0.31602800     -0.05825100     -0.06152000      0.07168000      0.00372000
Si             -0.71127229      2.07643995     -6.23399161      14     -0.06161100      0.18390500     -0.56329000     -0.01338000      0.07672000     -0.11397000
Si             -0.92141405      2.58041896     -0.94286212      14     -0.08170400      0.23248700     -0.08366500     -0.24716000     -0.33076000     -0.38033000
Si             -3.33173732     -3.34136255     -3.34646341      14     -0.30351700     -0.30659100     -0.30422600     -0.22616000     -0.00041000     -0.13525000
Si             -3.39685221     -3.46592761      2.06677436      14     -0.31088500     -0.31475200      0.18605600     -0.13190000      0.08258000     -0.01932000
Si             -3.52063969      2.15316144     -3.57127650      14     -0.31709800      0.19061600     -0.32133600     -0.09134000      0.12825000     -0.01506000
Si             -3.49210242      2.16735127      2.15203580      14     -0.31596100      0.19525800      0.19709000     -0.16774000      0.07445000     -0.23307000
Si              2.07098159     -3.47484758     -3.43969584      14      0.18653800     -0.31529100     -0.31412800     -0.02177000      0.06099000     -0.10401000
Si              2.35730945     -3.77379396      2.35616447      14      0.21084300     -0.33879300      0.21062100     -0.39905000      0.13824000     -0.40034000
Si              2.13022714      2.18991254     -3.53712039      14      0.19554400      0.19756100     -0.31966300     -0.27230000      0.04698000     -0.15153000
Si              1.99065894      1.95728760      1.95467711      14      0.18133300      0.17961500      0.17769100     -0.12949000      0.00106000     -0.10627000
Si             -6.13494161     -6.12239937     -3.38450628      14     -0.55957500     -0.56018500     -0.30857900     -0.10951000      0.04718000     -0.13257000
Si             -6.15687768     -6.23428945      2.10749639      14     -0.56303800     -0.56712500      0.18883400     -0.00817000      0.08971000     -0.28030000
Si             -6.20565410     -0.61132470     -3.49053644      14     -0.56245400     -0.06133500     -0.31495000     -0.15736000      0.08961000     -0.18662000
Si             -6.10988769     -0.70211777      2.16601163      14     -0.55526800     -0.06619400      0.19735000     -0.04087000      0.18721000     -0.13427000
Si             -0.63187973     -6.12495046     -3.51247854      14     -0.06032500     -0.55698700     -0.32157700     -0.25153000      0.05117000     -0.11324000
Si             -0.61443520     -6.19295818      2.14568925      14     -0.06023000     -0.55983200      0.19090300     -0.06632000      0.03225000     -0.05776000
Si             -0.69743865     -0.61444139     -3.44551883      14     -0.06278100     -0.05808400     -0.31228000     -0.08782000      0.15327000     -0.14129000
Si             -0.34888541     -1.17935127      2.43082225      14     -0.03302100     -0.10557900      0.21958800     -0.03507000     -0.02758000     -0.44621000
Si             -2.04951306     -4.72846415     -4.78478972      14     -0.18771400     -0.43219800     -0.43564800      0.31403000     -0.07818000      0.05518000
Si             -2.00694430     -4.84022844      0.72185606      14     -0.18532900     -0.43907700      0.06307500      0.07038000     -0.03607000      0.08383000
Si             -2.09430927      0.73465765     -4.84965694      14     -0.18828300      0.06235100     -0.43832500      0.12446000     -0.11645000      0.12309000
Si             -2.45401458      1.27904508      0.29194111      14     -0.22188000      0.11440900      0.02781700      0.17858000     -0.35866000      0.07648000