66
energy=-10764.20038709 enthalpy=-10764.20040000 calculate_stress=True cut_off_energy=250.00000000 elec_energy_tol=0.00000010 fine_grid_scale=4.00000000 finite_basis_corr=automatic fix_occupancy=False max_scf_cycles=250 mix_history_length=20 mixing_scheme=pulay num_dump_cycles=0 opt_strategy=speed perc_extra_bands=200.00000000 smearing_width=0.05000000 spin_polarized=False task=GeometryOptimization xc_functional=PW91 castep_file_name=castep.castep castep_run_time=7184.19000000 virial="0.15782588       0.23505947       0.40646044       0.23505947       0.16939565       0.20305692       0.40646044       0.20305692       0.13180627" cutoff=-1.00000000 nneightol=1.20000000 pbc="T T T" Lattice="10.97617880      -0.01823710      -0.01969200      -0.01823710      10.97572510      -0.01878770      -0.01969200      -0.01878770      10.97505340" Properties=species:S:1:pos:R:3:Z:I:1:frac_pos:R:3:force:R:3
Si             -5.61647473     -3.96040385     -2.99623312      14     -0.51279100     -0.36215500     -0.27454400     -0.00667000     -0.00882000     -0.00107000
Si             -5.64127125     -3.97555567      2.50332598      14     -0.51415200     -0.36268000      0.22654900      0.00047000      0.00817000     -0.00571000
Si             -5.64069575      1.53825827     -3.00988762      14     -0.51416600      0.13882600     -0.27493300      0.00547000     -0.00273000      0.00113000
Si             -5.65774941      1.52260335      2.48751830      14     -0.51482200      0.13825600      0.22596500     -0.00560000     -0.00109000     -0.00901000
Si             -0.16419274     -3.98857495     -3.02322381      14     -0.01605900     -0.36389900     -0.27611500     -0.01664000     -0.01544000     -0.01267000
Si             -0.15853384     -4.03697691      2.54561169      14     -0.01463900     -0.36743800      0.23129000      0.00215000     -0.01972000      0.00474000
Si              0.67776515     -0.40067232     -1.21137907      14      0.06149000     -0.03659200     -0.11032800      0.00079000      0.00227000     -0.03168000
Si             -0.19591799      1.53316233      2.49782484      14     -0.01720800      0.14004800      0.22780000     -0.01365000      0.01171000      0.01868000
Si             -2.88229319     -6.69471004     -2.99747828      14     -0.26410300     -0.61086500     -0.27463700     -0.01001000     -0.01680000      0.00310000
Si             -2.89657283     -6.71800212      2.50252586      14     -0.26450700     -0.61213000      0.22649700      0.00267000     -0.01768000     -0.00632000
Si             -2.90894389     -1.24140981     -3.02188294      14     -0.26570800     -0.11401900     -0.27601300     -0.01275000     -0.02723000     -0.01907000
Si             -2.95723083     -1.23655337      2.54549850      14     -0.26919500     -0.11271400      0.23125900     -0.01947000     -0.01099000     -0.00386000
Si              2.61813069     -6.71827620     -3.01077879      14      0.23701800     -0.61218000     -0.27495200     -0.00579000     -0.00938000      0.00760000
Si              2.60158734     -6.73654317      2.48603805      14      0.23640800     -0.61298800      0.22589200     -0.00535000     -0.00795000     -0.00123000
Si              2.65953707     -1.23650285     -3.07055134      14      0.24161200     -0.11273500     -0.27953500      0.00691000     -0.00561000     -0.02199000
Si              2.61213144     -1.27499372      2.49854909      14      0.23819900     -0.11537900      0.22788700      0.01273000     -0.00110000      0.01644000
Si             -5.61729229     -6.69529329     -5.73085459      14     -0.51372800     -0.61176000     -0.52414000     -0.01018000     -0.02326000     -0.00985000
Si             -5.62023505     -6.69809149     -0.23681052      14     -0.51309700     -0.61115700     -0.02354400      0.00502000     -0.00499000      0.00218000
Si             -5.61929803     -1.20187880     -5.73333455      14     -0.51307800     -0.11125200     -0.52350800     -0.00076000      0.00024000      0.00287000
Si             -5.62832712     -1.21272064     -0.24706896      14     -0.51300400     -0.11138400     -0.02362300     -0.02576000     -0.01836000     -0.01460000
Si             -0.12176834     -6.70075897     -5.73393768      14     -0.01304900     -0.61142500     -0.52352200      0.00470000      0.00199000      0.00006000
Si             -0.13330533     -6.70739136     -0.24859669      14     -0.01320300     -0.61117400     -0.02372100     -0.01370000     -0.02303000     -0.01549000
Si             -0.13416046     -1.21326730     -5.74149218      14     -0.01334700     -0.11145900     -0.52335500     -0.01434000     -0.01610000     -0.01641000
Si             -1.09841410     -0.40118399      0.56791735      14     -0.10004100     -0.03663000      0.05150400     -0.02313000      0.00361000      0.00853000
Si             -2.88267903     -3.96252935     -5.72893070      14     -0.26417100     -0.36236100     -0.52309000     -0.00233000     -0.00181000     -0.01218000
Si             -2.90994773     -3.98823791     -0.27925232      14     -0.26576700     -0.36385600     -0.02654400     -0.01924000     -0.02863000     -0.01154000
Si             -2.89697127      1.53856228     -5.75449311      14     -0.26464300      0.13884100     -0.52456200      0.01127000     -0.01084000     -0.00405000
Si             -2.95700122      1.58071332     -0.27131072      14     -0.26920800      0.14352900     -0.02495800     -0.01072000     -0.00187000      0.00303000
Si              2.61713504     -3.97588823     -5.75438595      14      0.23689400     -0.36274800     -0.52451100     -0.00393000      0.00489000     -0.00963000
Si              2.65871363     -4.03431180     -0.27113685      14      0.24157100     -0.36720800     -0.02490000      0.00104000     -0.02752000     -0.00898000
Si              2.60272267      1.52226952     -5.77145946      14      0.23641200      0.13818800     -0.52521000     -0.00777000     -0.01143000     -0.00329000
Si              2.61399685      1.53410271     -0.31089582      14      0.23833500      0.14012100     -0.02766000      0.01459000      0.01596000      0.00170000
Si             -4.28225456     -2.59885823     -7.07129120      14     -0.39169500     -0.23853800     -0.64541700      0.00251000      0.01898000      0.00983000
Si             -4.26592885     -2.58499784     -1.62011276      14     -0.38931300     -0.23642100     -0.14872100      0.00135000      0.00793000     -0.00291000
Si             -4.27057585      2.90538849     -7.12502361      14     -0.38980500      0.26295100     -0.64945100      0.01269000      0.00431000     -0.00108000
Si             -4.30077242      2.93839727     -1.65186638      14     -0.39165500      0.26680900     -0.15075700     -0.00308000      0.02137000      0.01148000
Si              1.22843764     -2.60079014     -7.10166946      14      0.11036200     -0.23788300     -0.64728300      0.01302000      0.01265000      0.00200000
Si              1.34878126     -2.71469907     -1.75050681      14      0.12218500     -0.24740700     -0.15970300     -0.00635000     -0.00176000      0.00015000
Si              1.22830105      2.91154398     -7.11735521      14      0.11118300      0.26434700     -0.64785100      0.00915000      0.02788000      0.01856000
Si              1.21157584      2.90850582     -1.65560729      14      0.11055300      0.26492100     -0.15020000      0.00739000      0.00885000      0.01347000
Si             -6.99164032     -5.33180545     -7.10603142      14     -0.63895900     -0.48795500     -0.64945300     -0.01031000      0.01650000      0.00292000
Si             -6.95834714     -5.36060773     -1.63276157      14     -0.63503400     -0.48971900     -0.15074800      0.00803000      0.00523000      0.02032000
Si             -6.98253362      0.16615858     -7.09697152      14     -0.63729400      0.01297100     -0.64776700      0.01289000      0.00766000      0.01546000
Si             -6.98774330      0.14994295     -1.63611067      14     -0.63687700      0.01234600     -0.15019700      0.00231000      0.00517000      0.02078000
Si             -1.51907103     -5.36311311     -7.07095672      14     -0.14036900     -0.48997200     -0.64536600      0.02172000      0.01092000      0.01537000
Si             -1.50666837     -5.34564482     -1.62056761      14     -0.13834400     -0.48752700     -0.14874200      0.00278000      0.00975000     -0.00111000
Si             -1.52176004      0.14911911     -7.10155271      14     -0.13978300      0.01224600     -0.64729300      0.01937000      0.02169000      0.00397000
Si             -1.63509701      0.27135526     -1.74972755      14     -0.14921400      0.02420200     -0.15965400     -0.00394000     -0.00575000     -0.00052000
Si             -4.24819881     -5.32581346     -4.36033269      14     -0.38856200     -0.48656400     -0.39882500     -0.00014000     -0.00340000     -0.00320000
Si             -4.26045397     -5.33818758      1.13295434      14     -0.38878100     -0.48683500      0.10169900      0.00668000      0.00829000     -0.00117000
Si             -4.25923134      0.16821547     -4.37313592      14     -0.38873600      0.01399700     -0.39913500     -0.00136000      0.00701000      0.00534000
Si             -4.27509186      0.15678780      1.12216439      14     -0.38928300      0.01381200      0.10157200     -0.00614000     -0.00888000     -0.01191000
Si              1.24714747     -5.33893352     -4.37351029      14      0.11209800     -0.48692800     -0.39912800      0.00117000      0.00381000      0.00095000
Si              1.23539882     -5.35405523      1.12142679      14      0.11192500     -0.48744900      0.10154600     -0.01161000     -0.00252000     -0.01182000
Si              1.23610551      0.15650402     -4.38847799      14      0.11192300      0.01376100     -0.39963500     -0.01190000     -0.01031000     -0.01132000
Si              1.29723738      0.21857569      1.18202194      14      0.11841400      0.02029600      0.10794800      0.01640000      0.00659000      0.00303000
Si             -6.95864651     -2.59893442     -4.39689335      14     -0.63509500     -0.23853300     -0.40217400      0.01090000      0.02893000      0.00449000
Si             -6.98934950     -2.60107077      1.11576915      14     -0.63699000     -0.23787100      0.10011400      0.01256000      0.02192000      0.00840000
Si             -7.01067968      2.90447192     -4.38514282      14     -0.63899900      0.26288000     -0.40025200      0.00269000      0.00654000      0.01496000
Si             -7.00203393      2.91351483      1.11140633      14     -0.63731000      0.26456400      0.10057600      0.01946000      0.01413000      0.01304000
Si             -1.50733708     -2.58598944     -4.37886755      14     -0.13843800     -0.23652400     -0.39963700      0.00270000      0.00816000      0.00398000
Si             -1.63827287     -2.71853551      1.23568437      14     -0.14946800     -0.24774300      0.11189800     -0.00311000      0.01031000     -0.00169000
Si             -1.53780346      2.93761555     -4.41565595      14     -0.14038200      0.26672500     -0.40213100      0.01861000      0.01926000     -0.00164000
Si             -1.53971370      2.90923487      1.09555112      14     -0.13965800      0.26500000      0.10002500      0.00755000      0.00344000      0.01346000
Si             -0.15709967      1.58066758     -3.07129756      14     -0.01457600      0.14351200     -0.27962400      0.00163000      0.00216000     -0.01297000
Si              0.67621050     -2.17805627      0.56718272      14      0.06137000     -0.19825300      0.05145000      0.00437000     -0.02327000      0.00792000
