66
energy=-10761.90171800 enthalpy=-10761.90170000 calculate_stress=True cut_off_energy=250.0 elec_energy_tol=1e-07 fine_grid_scale=4.0 finite_basis_corr=automatic fix_occupancy=False max_scf_cycles=250 mix_history_length=20 mixing_scheme=pulay num_dump_cycles=0 opt_strategy=speed perc_extra_bands=200.0 smearing_width=0.05 spin_polarized=False task=GeometryOptimization xc_functional=PW91 kpoints_mp_grid="4       4       4" castep_file_name=castep.castep virial="9.83318121      -2.22844835       1.96686394      -2.22844835       9.93111577      -1.92054365       1.96686394      -1.92054365       9.95217784" cutoff=-1.00000000 nneightol=1.20000000 pbc="T T T" Lattice="10.92204330       0.00000000       0.00000000       0.00000000      10.92204330       0.00000000       0.00000000       0.00000000      10.92204330" Properties=species:S:1:pos:R:3:Z:I:1:frac_pos:R:3:force:R:3
Si             -4.79669929     -6.10104247     -2.02728415      14     -0.43917600     -0.55859900     -0.18561400     -0.05153000     -0.03018000      0.02912000
Si             -4.76304847     -6.13878905      3.42743549      14     -0.43609500     -0.56205500      0.31380900     -0.02807000      0.03074000      0.08846000
Si             -4.76842212     -0.70356526     -2.06008304      14     -0.43658700     -0.06441700     -0.18861700      0.07149000      0.12617000      0.00828000
Si             -4.78737186     -0.65240641      3.43647894      14     -0.43832200     -0.05973300      0.31463700     -0.02941000     -0.10065000     -0.09313000
Si              0.71967528     -6.13917132     -2.05799693      14      0.06589200     -0.56209000     -0.18842600     -0.02537000      0.01740000     -0.00645000
Si              0.66827614     -6.10612122      3.43479694      14      0.06118600     -0.55906400      0.31448300      0.10281000     -0.02997000     -0.00600000
Si              0.74159582     -0.71767654     -2.09955531      14      0.06789900     -0.06570900     -0.19223100     -0.01622000     -0.02640000     -0.09810000
Si              0.71501156     -0.69585430      3.46734463      14      0.06546500     -0.06371100      0.31746300      0.01198000      0.00093000      0.02090000
Si             -2.07777675     -3.49671401     -2.08408969      14     -0.19023700     -0.32015200     -0.19081500      0.05581000      0.22390000      0.10178000
Si             -2.07670639     -3.40669453      3.42392951      14     -0.19013900     -0.31191000      0.31348800      0.14890000      0.11166000     -0.09348000
Si             -2.17863090      2.19766802     -2.17489556      14     -0.19947100      0.20121400     -0.19912900     -0.04368000      0.06597000     -0.04602000
Si             -2.07976456      2.10404427      3.51697440      14     -0.19041900      0.19264200      0.32200700      0.06714000     -0.10265000     -0.17596000
Si              3.42333972     -3.40419338     -2.06936678      14      0.31343400     -0.31168100     -0.18946700     -0.10901000      0.10427000      0.00842000
Si              3.54197495     -3.52730665      3.53837068      14      0.32429600     -0.32295300      0.32396600      0.00315000      0.01712000      0.03608000
Si              3.52318904      2.10171787     -2.08082400      14      0.32257600      0.19242900     -0.19051600     -0.28849000     -0.03584000      0.04563000
Si              3.42602654      2.08958348      3.42347078      14      0.31368000      0.19131800      0.31344600     -0.12719000     -0.04297000     -0.11662000
Si             -4.75937867     -3.41082306     -4.76108251      14     -0.43575900     -0.31228800     -0.43591500     -0.06804000      0.00193000     -0.02967000
Si             -4.79029897     -3.42272809      0.67615093      14     -0.43859000     -0.31337800      0.06190700     -0.03708000      0.10256000     -0.08121000
Si             -4.80137392      2.04603729     -4.79922228      14     -0.43960400      0.18733100     -0.43940700     -0.00774000     -0.07685000      0.00557000
Si             -4.76718793      2.07806072      0.72524552      14     -0.43647400      0.19026300      0.06640200      0.08045000      0.07207000     -0.12843000
Si              0.67099573     -3.41774763     -4.79489715      14      0.06143500     -0.31292200     -0.43901100      0.04443000      0.01170000      0.03983000
Si              0.71774208     -3.45434740      0.70956147      14      0.06571500     -0.31627300      0.06496600     -0.03890000      0.04543000      0.08612000
Si              0.72089855      2.07925123     -4.76722069      14      0.06600400      0.19037200     -0.43647700     -0.05406000      0.05275000      0.07188000
Si              0.73514089      2.12030719      0.74158490      14      0.06730800      0.19413100      0.06789800      0.02494000      0.07022000     -0.03836000
Si             -2.02040326     -6.09860685     -4.79768227      14     -0.18498400     -0.55837600     -0.43926600     -0.06024000     -0.05007000     -0.04507000
Si             -2.05587805     -6.13668109      0.72606467      14     -0.18823200     -0.56186200      0.06647700     -0.11855000     -0.04268000     -0.14676000
Si             -2.05510259     -0.70201433     -4.76905560      14     -0.18816100     -0.06427500     -0.43664500     -0.11101000      0.09563000      0.11358000
Si             -2.09909658     -0.72511445      0.73936772      14     -0.19218900     -0.06639000      0.06769500     -0.06106000      0.02390000     -0.00044000
Si              3.42738088     -6.13567626     -4.76671828      14      0.31380400     -0.56177000     -0.43643100      0.09906000     -0.02940000      0.02922000
Si              3.43438191     -6.11298026      0.66902976      14      0.31444500     -0.55969200      0.06125500     -0.01666000      0.01724000      0.10776000
Si              3.44240961     -0.65566118     -4.79306225      14      0.31518000     -0.06003100     -0.43884300     -0.09354000     -0.03766000     -0.00645000
Si              3.46895017     -0.69616012      0.71393028      14      0.31761000     -0.06373900      0.06536600     -0.01733000      0.03229000     -0.00377000
Si             -3.41098689     -4.75852675     -6.13917132      14     -0.31230300     -0.43568100     -0.56209000     -0.03736000     -0.10451000      0.03232000
Si             -3.41679742     -4.79013514     -0.65553012      14     -0.31283500     -0.43857500     -0.06001900      0.05928000     -0.01844000     -0.01093000
Si             -3.42113347      0.66860380     -6.11539403      14     -0.31323200      0.06121600     -0.55991300      0.08281000      0.12824000      0.05841000
Si             -3.45012057      0.71147282     -0.69231556      14     -0.31588600      0.06514100     -0.06338700     -0.00578000      0.00823000     -0.00909000
Si              2.04352522     -4.80402798     -6.09777677      14      0.18710100     -0.43984700     -0.55830000     -0.03047000      0.08130000     -0.11351000
Si              2.07939321     -4.76491614     -0.69693558      14      0.19038500     -0.43626600     -0.06381000      0.01731000     -0.00500000     -0.03453000
Si              2.07593093      0.72255870     -6.13365569      14      0.19006800      0.06615600     -0.56158500      0.07089000     -0.10347000     -0.07397000
Si              2.11846136      0.74148660     -0.72613020      14      0.19396200      0.06788900     -0.06648300      0.08701000      0.01970000      0.05887000
Si             -6.09950246     -2.02449902     -6.10529114      14     -0.55845800     -0.18535900     -0.55898800     -0.00962000     -0.04427000     -0.02373000
Si             -6.13783883     -2.05245945     -0.70682003      14     -0.56196800     -0.18791900     -0.06471500     -0.00890000     -0.12898000      0.16396000
Si             -6.14174892      3.42895365     -6.14141034      14     -0.56232600      0.31394800     -0.56229500      0.03781000      0.06752000      0.02743000
Si             -6.11468410      3.44022520     -0.64933732      14     -0.55984800      0.31498000     -0.05945200      0.09687000     -0.03830000     -0.09088000
Si             -0.70318299     -2.05517904     -6.13338264      14     -0.06438200     -0.18816800     -0.56156000      0.07435000     -0.09196000     -0.13334000
Si             -0.71389752     -2.10214383     -0.71612561      14     -0.06536300     -0.19246800     -0.06556700     -0.02434000     -0.08502000     -0.05113000
Si             -0.64846355      3.44196180     -6.11069755      14     -0.05937200      0.31513900     -0.55948300     -0.09253000     -0.04340000     -0.00618000
Si             -0.69472933      3.47556893     -0.69175853      14     -0.06360800      0.31821600     -0.06333600     -0.01390000     -0.08235000     -0.01079000
Si             -3.40880248     -2.06953061     -3.39995562      14     -0.31210300     -0.18948200     -0.31129300      0.18212000      0.02795000      0.02428000
Si             -3.49347016     -2.08726801      2.09703231      14     -0.31985500     -0.19110600      0.19200000      0.15821000      0.12518000     -0.02351000
Si             -3.52334195      3.54306716     -3.52570111      14     -0.32259000      0.32439600     -0.32280600      0.04970000     -0.01412000      0.02442000
Si             -3.40423707      3.42557874      2.09433457      14     -0.31168500      0.31363900      0.19175300      0.09678000     -0.11118000     -0.06358000
Si              2.09834296     -2.08100968     -3.49877827      14      0.19212000     -0.19053300     -0.32034100     -0.03969000      0.05861000      0.20810000
Si              2.19998349     -2.17872920      2.19653213      14      0.20142600     -0.19948000      0.20111000      0.00914000     -0.03381000      0.01720000
Si              2.09154945      3.42904103     -3.40658531      14      0.19149800      0.31395600     -0.31190000     -0.00957000     -0.15898000      0.11353000
Si              2.09756749      3.51740036      2.09993758      14      0.19204900      0.32204600      0.19226600     -0.05004000     -0.21697000     -0.03855000
Si             -6.14119190     -4.75990292     -3.41164221      14     -0.56227500     -0.43580700     -0.31236300      0.03047000     -0.04550000     -0.02826000
Si             -6.10044175     -4.80229137      2.03827172      14     -0.55854400     -0.43968800      0.18662000     -0.06222000     -0.01864000      0.03727000
Si             -6.11506637      0.66730408     -3.41407783      14     -0.55988300      0.06109700     -0.31258600      0.06648000      0.10642000     -0.04239000
Si             -6.13135114      0.72183784      2.07375744      14     -0.56137400      0.06609000      0.18986900     -0.10201000     -0.10551000      0.08503000
Si             -0.65231904     -4.79474424     -3.41875246      14     -0.05972500     -0.43899700     -0.31301400     -0.00638000      0.05461000      0.03809000
Si             -0.70444995     -4.77059560      2.07282907      14     -0.06449800     -0.43678600      0.18978400      0.09399000      0.15056000      0.08517000
Si             -0.69291627      0.71593994     -3.45003319      14     -0.06344200      0.06555000     -0.31587800     -0.02140000     -0.00703000      0.00785000
Si             -0.71875783      0.73769665      2.12074407      14     -0.06580800      0.06754200      0.19417100     -0.03572000      0.01246000      0.08523000
Si             -0.81967751      0.83582029     -0.82117383      14     -0.07504800      0.07652600     -0.07518500      0.21849000     -0.20965000      0.21938000
Si              0.83788455     -0.81672855      0.83764427      14      0.07671500     -0.07477800      0.07669300     -0.18872000      0.20773000     -0.20890000
66
energy=-10761.93051916 calculate_stress=True cut_off_energy=250.0 elec_energy_tol=1e-07 fine_grid_scale=4.0 finite_basis_corr=automatic fix_occupancy=False max_scf_cycles=250 mix_history_length=20 mixing_scheme=pulay num_dump_cycles=0 opt_strategy=speed perc_extra_bands=200.0 smearing_width=0.05 spin_polarized=False task=GeometryOptimization xc_functional=PW91 castep_file_name=castep.castep virial="8.04188995      -1.98136817       1.77042145      -1.98136817       8.13915027      -1.74030019       1.77042145      -1.74030019       8.15069336" cutoff=-1.00000000 nneightol=1.20000000 pbc="T T T" Lattice="10.93084780      -0.00199530       0.00176110      -0.00199530      10.93093550      -0.00171960       0.00176110      -0.00171960      10.93095440" Properties=species:S:1:pos:R:3:Z:I:1:frac_pos:R:3:force:R:3
Si             -4.79996412     -6.10491253     -2.02865267      14     -0.43919300     -0.55860800     -0.18560500     -0.05076000     -0.02333000      0.02031000
Si             -4.76531230     -6.14334716      3.43073641      14     -0.43610400     -0.56204500      0.31383700     -0.02789000      0.02978000      0.07533000
Si             -4.77221836     -0.70250542     -2.06238916      14     -0.43656400     -0.06437700     -0.18861400      0.06225000      0.12202000      0.00470000
Si             -4.79065614     -0.65295376      3.43829653      14     -0.43833100     -0.05976500      0.31460800     -0.02817000     -0.09154000     -0.08761000
Si              0.72095766     -6.14391139     -2.05861529      14      0.06588400     -0.56208400     -0.18842800     -0.02941000      0.01977000     -0.01023000
Si              0.67084492     -6.11185383      3.43864667      14      0.06121900     -0.55907300      0.31448100      0.09464000     -0.02799000     -0.00892000
Si              0.74192058     -0.71815314     -2.10138551      14      0.06789300     -0.06571700     -0.19226300     -0.02309000     -0.01704000     -0.09243000
Si              0.71630696     -0.69709738      3.47046402      14      0.06546800     -0.06371100      0.31746900      0.01014000      0.00199000      0.01370000
Si             -2.07895227     -3.49806622     -2.08522486      14     -0.19021900     -0.32008000     -0.19078300      0.05129000      0.21706000      0.09411000
Si             -2.07669241     -3.40923431      3.42660756      14     -0.19009200     -0.31187400      0.31345900      0.13425000      0.10674000     -0.09014000
Si             -2.18129241      2.20042729     -2.17753134      14     -0.19948500      0.20123500     -0.19914400     -0.03192000      0.05271000     -0.03463000
Si             -2.08102888      2.10522283      3.51856518      14     -0.19039800      0.19260900      0.32195100      0.06188000     -0.09488000     -0.17387000
Si              3.42600494     -3.40690371     -2.06993451      14      0.31339900     -0.31164800     -0.18946400     -0.10348000      0.09997000      0.00373000
Si              3.54605608     -3.53132794      3.54251521      14      0.32429700     -0.32294800      0.32397800     -0.00002000      0.02056000      0.02947000
Si              3.52430410      2.10298195     -2.08212070      14      0.32248400      0.19241700     -0.19050100     -0.27754000     -0.03364000      0.04153000
Si              3.42851041      2.08997787      3.42608287      14      0.31363900      0.19130500      0.31340900     -0.12136000     -0.03639000     -0.11102000
Si             -4.76360038     -3.41196993     -4.76529581      14     -0.43578100     -0.31228700     -0.43592400     -0.06528000      0.00740000     -0.03053000
Si             -4.79355751     -3.42439618      0.67618480      14     -0.43860200     -0.31334600      0.06188100     -0.03454000      0.09725000     -0.07547000
Si             -4.80642478      2.04907348     -4.80421230      14     -0.43960700      0.18730700     -0.43940500     -0.00996000     -0.06353000     -0.00023000
Si             -4.77100947      2.08076072      0.72429322      14     -0.43644800      0.19028600      0.06636100      0.07013000      0.06805000     -0.12556000
Si              0.67154091     -3.41985418     -4.79803174      14      0.06144900     -0.31291800     -0.43899900      0.04108000      0.01458000      0.03554000
Si              0.71893499     -3.45724959      0.71110600      14      0.06570300     -0.31625900      0.06499400     -0.03664000      0.04819000      0.07856000
Si              0.72013440      2.08174874     -4.77106996      14      0.06598600      0.19038900     -0.43645400     -0.05558000      0.05094000      0.06129000
Si              0.73555311      2.12203380      0.74184345      14      0.06731600      0.19415400      0.06788600      0.01586000      0.06608000     -0.04404000
Si             -2.02191002     -6.10262241     -4.80111525      14     -0.18500400     -0.55839200     -0.43928000     -0.06174000     -0.04303000     -0.04573000
Si             -2.05671262     -6.14155796      0.72677794      14     -0.18827000     -0.56187500      0.06643000     -0.11168000     -0.03415000     -0.14219000
Si             -2.05778256     -0.70112072     -4.77277403      14     -0.18819600     -0.06424400     -0.43660900     -0.10470000      0.09445000      0.09932000
Si             -2.10075565     -0.72536119      0.73974661      14     -0.19220900     -0.06638300      0.06769500     -0.05710000      0.03077000     -0.00867000
Si              3.43084589     -6.14065667     -4.76897932      14      0.31383600     -0.56178000     -0.43642100      0.08485000     -0.02475000      0.02398000
Si              3.43830953     -6.11862436      0.67146346      14      0.31443900     -0.55968600      0.06128900     -0.01760000      0.01603000      0.09818000
Si              3.44420364     -0.65620034     -4.79633642      14      0.31515000     -0.06004300     -0.43884500     -0.08928000     -0.03437000     -0.00739000
Si              3.47192326     -0.69736370      0.71515982      14      0.31760400     -0.06372900      0.06536400     -0.02125000      0.03121000     -0.00530000
Si             -3.41398823     -4.76117192     -6.14387161      14     -0.31231500     -0.43571400     -0.56208000     -0.02831000     -0.09815000      0.03195000
Si             -3.41857469     -4.79336232     -0.65589446      14     -0.31281600     -0.43858000     -0.06002200      0.05600000     -0.01795000     -0.01017000
Si             -3.42471537      0.67118405     -6.12084364      14     -0.31320600      0.06125700     -0.55989500      0.07875000      0.11774000      0.05576000
Si             -3.45316527      0.71282416     -0.69357060      14     -0.31588800      0.06514400     -0.06338900      0.00092000      0.00827000     -0.00712000
Si              2.04495754     -4.80706817     -6.10205955      14      0.18709100     -0.43982100     -0.55833600     -0.02052000      0.07175000     -0.10060000
Si              2.08189313     -4.76908751     -0.69653894      14      0.19039100     -0.43626800     -0.06382100      0.01858000     -0.00867000     -0.02529000
Si              2.07672388      0.72337270     -6.13869038      14      0.19009000      0.06612300     -0.56160800      0.06830000     -0.10144000     -0.06426000
Si              2.12022264      0.74188309     -0.72629007      14      0.19399000      0.06789500     -0.06646400      0.08148000      0.01041000      0.06390000
Si             -6.10506677     -2.02422476     -6.11102452      14     -0.55846100     -0.18537300     -0.55899600     -0.00647000     -0.04676000     -0.01743000
Si             -6.14255831     -2.05334614     -0.70749478      14     -0.56197100     -0.18796000     -0.06466300     -0.00479000     -0.12232000      0.15792000
Si             -6.14818545      3.43406378     -6.14785282      14     -0.56231400      0.31396900     -0.56228600      0.03767000      0.05537000      0.02840000
Si             -6.12000763      3.44411418     -0.65170068      14     -0.55981700      0.31496800     -0.05948000      0.09030000     -0.03883000     -0.08387000
Si             -0.70410103     -2.05607512     -6.13863557      14     -0.06435800     -0.18819700     -0.56160200      0.07489000     -0.08723000     -0.11754000
Si             -0.71429186     -2.10390722     -0.71666889      14     -0.06537100     -0.19249500     -0.06558300     -0.01525000     -0.07930000     -0.03997000
Si             -0.65092830      3.44569166     -6.11635152      14     -0.05940200      0.31512500     -0.55948500     -0.08574000     -0.04403000     -0.00453000
Si             -0.69609045      3.47833928     -0.69301491      14     -0.06361300      0.31818900     -0.06333900     -0.01197000     -0.08277000     -0.00961000
Si             -3.41108655     -2.06995923     -3.40286587      14     -0.31204500     -0.18947300     -0.31128500      0.17231000      0.02285000      0.02631000
Si             -3.49502043     -2.08822216      2.09842115      14     -0.31980500     -0.19106600      0.19199200      0.15630000      0.11505000     -0.02135000
Si             -3.52722304      3.54710674     -3.52961613      14     -0.32257400      0.32439200     -0.32279800      0.04782000     -0.01725000      0.02683000
Si             -3.40693051      3.42827724      2.09473655      14     -0.31165400      0.31360400      0.19173300      0.09269000     -0.10644000     -0.05506000
Si              2.09970848     -2.08233974     -3.50024549      14      0.19210700     -0.19051500     -0.32027500     -0.03606000      0.05379000      0.20320000
Si              2.20254197     -2.18136007      2.19907667      14      0.20142900     -0.19949000      0.20111500      0.00054000     -0.02408000      0.00910000
Si              2.09201621      3.43142950     -3.40917371      14      0.19149400      0.31390500     -0.31186400     -0.00680000     -0.15046000      0.10985000
Si              2.09877963      3.51879606      2.10129329      14      0.19203300      0.32197700      0.19225300     -0.04585000     -0.21196000     -0.03514000
Si             -6.14571366     -4.76227220     -3.41476485      14     -0.56226500     -0.43582100     -0.31237200      0.03078000     -0.04439000     -0.01897000
Si             -6.10437207     -4.80547318      2.03982736      14     -0.55856400     -0.43969400      0.18663100     -0.05326000     -0.01929000      0.04247000
Si             -6.12043880      0.66987366     -3.41809651      14     -0.55986200      0.06113100     -0.31259900      0.06203000      0.09882000     -0.03643000
Si             -6.13644092      0.72284750      2.07464223      14     -0.56140600      0.06605600      0.18989600     -0.09100000     -0.10291000      0.08168000
Si             -0.65254208     -4.79779372     -3.42076091      14     -0.05972700     -0.43897900     -0.31300200     -0.00658000      0.04984000      0.03884000
Si             -0.70348420     -4.77415267      2.07545287      14     -0.06446800     -0.43673800      0.18981100      0.09322000      0.13414000      0.08264000
Si             -0.69423844      0.71717074     -3.45303968      14     -0.06344900      0.06554800     -0.31587500     -0.01952000     -0.00727000      0.01329000
Si             -0.71926117      0.73813836      2.12254835      14     -0.06582000      0.06754600      0.19419900     -0.02526000      0.00388000      0.08000000
Si             -0.81986888      0.83604717     -0.82134216      14     -0.07497900      0.07645900     -0.07511500      0.20973000     -0.20163000      0.21027000
Si              0.83818816     -0.81695677      0.83786971      14      0.07665500     -0.07471200      0.07662700     -0.18227000      0.20031000     -0.20087000
66
energy=-10762.00352913 enthalpy=-10762.00380000 calculate_stress=True cut_off_energy=250.0 elec_energy_tol=1e-07 fine_grid_scale=4.0 finite_basis_corr=automatic fix_occupancy=False max_scf_cycles=250 mix_history_length=20 mixing_scheme=pulay num_dump_cycles=0 opt_strategy=speed perc_extra_bands=200.0 smearing_width=0.05 spin_polarized=False task=GeometryOptimization xc_functional=PW91 castep_file_name=castep.castep virial="-1.41959248      -0.68748734       0.73900181      -0.68748734      -1.32963006      -0.79303543       0.73900181      -0.79303543      -1.36778892" cutoff=-1.00000000 nneightol=1.20000000 pbc="T T T" Lattice="10.97839200      -0.01277000       0.01127100      -0.01277000      10.97895320      -0.01100560       0.01127100      -0.01100560      10.97907390" Properties=species:S:1:pos:R:3:Z:I:1:frac_pos:R:3:force:R:3
Si             -4.81755632     -6.12585023     -2.03602481      14     -0.43928100     -0.55866000     -0.18555500     -0.04566000      0.01159000     -0.02550000
Si             -4.77754300     -6.16796983      3.44857761      14     -0.43615300     -0.56199200      0.31398900     -0.02620000      0.02387000      0.00820000
Si             -4.79272677     -0.69676063     -2.07486634      14     -0.43644100     -0.06416000     -0.18860000      0.01514000      0.09972000     -0.01281000
Si             -4.80841990     -0.65591904      3.44805550      14     -0.43838200     -0.05993800      0.31444700     -0.02133000     -0.04462000     -0.05830000
Si              0.72787085     -6.16953144     -2.06196886      14      0.06584000     -0.56205400     -0.18844000     -0.04954000      0.03141000     -0.02869000
Si              0.68471377     -6.14285217      3.45943487      14      0.06139600     -0.55912500      0.31447000      0.05251000     -0.01831000     -0.02319000
Si              0.74373046     -0.72075773     -2.11122549      14      0.06786600     -0.06576300     -0.19243100     -0.05957000      0.03228000     -0.06179000
Si              0.72335608     -0.70378876      3.48735014      14      0.06548900     -0.06370900      0.31750500      0.00083000      0.00710000     -0.02249000
Si             -2.08531065     -3.50539083     -2.09131278      14     -0.19012300     -0.31969500     -0.19060700      0.02827000      0.18034000      0.05433000
Si             -2.07658266     -3.42296592      3.44101250      14     -0.18983600     -0.31168200      0.31329800      0.05928000      0.08044000     -0.07217000
Si             -2.19566456      2.21533122     -2.19174924      14     -0.19956000      0.20134800     -0.19922300      0.02874000     -0.01605000      0.02422000
Si             -2.08783344      2.11160289      3.52713464      14     -0.19028300      0.19243300      0.32164800      0.03496000     -0.05474000     -0.16159000
Si              3.44040627     -3.42150730     -2.07302745      14      0.31321200     -0.31146800     -0.18945000     -0.07407000      0.07679000     -0.01944000
Si              3.56810138     -3.55300921      3.56486823      14      0.32430300     -0.32291800      0.32404000     -0.01593000      0.03773000     -0.00442000
Si              3.53029686      2.10985147     -2.08915607      14      0.32198700      0.19235600     -0.19042300     -0.21913000     -0.02242000      0.02052000
Si              3.44193577      2.09206678      3.44016172      14      0.31342000      0.19123100      0.31320800     -0.09046000     -0.00346000     -0.08136000
Si             -4.78638512     -3.41818684     -4.78807788      14     -0.43589800     -0.31228400     -0.43597500     -0.04998000      0.03465000     -0.03436000
Si             -4.81114128     -3.43334554      0.67636142      14     -0.43866500     -0.31316900      0.06174100     -0.02071000      0.06905000     -0.04541000
Si             -4.83366332      2.06542434     -4.83116510      14     -0.43962000      0.18717400     -0.43939500     -0.02035000      0.00580000     -0.02954000
Si             -4.79166829      2.09534625      0.71914272      14     -0.43631000      0.19041000      0.06614000      0.01718000      0.04629000     -0.11028000
Si              0.67449410     -3.43124748     -4.81490783      14      0.06152500     -0.31289800     -0.43893000      0.02404000      0.02866000      0.01384000
Si              0.72534957     -3.47288052      0.71941837      14      0.06563600     -0.31618000      0.06514200     -0.02458000      0.06141000      0.03947000
Si              0.71604887      2.09523164     -4.79186396      14      0.06589300      0.19048000     -0.43633100     -0.06301000      0.04018000      0.00694000
Si              0.73777703      2.13131858      0.74322189      14      0.06735900      0.19427400      0.06782000     -0.03208000      0.04324000     -0.07425000
Si             -2.02999745     -6.12430461     -4.81968391      14     -0.18510700     -0.55847800     -0.43935800     -0.06968000     -0.00711000     -0.04855000
Si             -2.06121947     -6.16793329      0.73063345      14     -0.18847400     -0.56194900      0.06617800     -0.07531000      0.00946000     -0.11814000
Si             -2.07228685     -0.69632262     -4.79283963      14     -0.18838700     -0.06408000     -0.43641400     -0.07090000      0.08827000      0.02575000
Si             -2.10968833     -0.72664390      0.74177998      14     -0.19231400     -0.06634100      0.06769400     -0.03558000      0.06736000     -0.05216000
Si              3.44953719     -6.16751261     -4.78122702      14      0.31400600     -0.56183000     -0.43637100      0.01270000     -0.00209000     -0.00181000
Si              3.45956689     -6.14912862      0.68463067      14      0.31441100     -0.55965600      0.06147400     -0.02169000      0.00870000      0.04890000
Si              3.45389394     -0.65910448     -4.81402070      14      0.31498900     -0.06010700     -0.43885600     -0.06627000     -0.01754000     -0.01177000
Si              3.48800162     -0.70383761      0.72185045      14      0.31757400     -0.06367300      0.06535800     -0.04030000      0.02533000     -0.01307000
Si             -3.43018732     -4.77548533     -6.16922658      14     -0.31237900     -0.43589400     -0.56202400      0.01765000     -0.06446000      0.02959000
Si             -3.42817252     -4.81084648     -0.65789199      14     -0.31271400     -0.43861200     -0.06004100      0.03812000     -0.01470000     -0.00656000
Si             -3.44402285      0.68512277     -6.15022483      14     -0.31306300      0.06147800     -0.55979400      0.05701000      0.06348000      0.04154000
Si             -3.46959878      0.72009846     -0.70040577      14     -0.31589800      0.06515800     -0.06340500      0.03440000      0.00864000      0.00300000