2
Lattice="3.180536780108058 -2.8080198139251734e-31 -2.8080198139251735e-32 -2.8080198139251734e-31 3.180536780108058 0.0 -2.8080198139251735e-32 0.0 3.180536780108058" Properties=species:S:1:pos:R:3:Z:I:1:forces:R:3 stress="0.0001529864865199691 -6.654543982711946e-30 -1.3309087965423892e-29 -6.654543982711946e-30 0.00015298648651996882 4.6457133691124696e-21 -1.3309087965423892e-29 4.6457133691124696e-21 0.00015298648651996876" energy=-22.3923958196 Minim_Constant_Volume=T Minim_Hydrostatic_Strain=F pbc="T T T"
W      -0.00000000       0.00000000      -0.00000000       74       0.00000000       0.00000000      -0.00000000 
W       1.59026839       1.59026839       1.59026839       74      -0.00000000      -0.00000000       0.00000000 
2
Lattice="3.1538083166000086 -2.7844218930975357e-31 -2.784421893097536e-32 -2.7844218930975357e-31 3.1538083166000086 0.0 -2.784421893097536e-32 0.0 3.1538083166000086" Properties=species:S:1:pos:R:3:Z:I:1:forces:R:3 stress="-0.051266762020695106 -1.35356324124953e-29 1.3535632412495298e-29 -1.35356324124953e-29 -0.05126676202069512 7.208746395168224e-19 1.3535632412495298e-29 7.208746395168224e-19 -0.051266762020695106" energy=-22.3725342472 Minim_Constant_Volume=T Minim_Hydrostatic_Strain=F pbc="T T T"
W      -0.00000000       0.00000000      -0.00000000       74      -0.00000000       0.00000000      -0.00000000 
W       1.57690416       1.57690416       1.57690416       74       0.00000000       0.00000000      -0.00000000 
2
Lattice="3.1266189609053443 -2.7604170615873393e-31 -2.7604170615873397e-32 -2.7604170615873393e-31 3.1266189609053443 0.0 -2.7604170615873397e-32 0.0 3.1266189609053443" Properties=species:S:1:pos:R:3:Z:I:1:forces:R:3 stress="-0.1121462271214076 5.508828049046977e-29 5.508828049046978e-29 5.508828049046977e-29 -0.11214622712140751 1.5951916628049448e-18 5.508828049046978e-29 1.5951916628049448e-18 -0.11214622712140757" energy=-22.3073498559 Minim_Constant_Volume=T Minim_Hydrostatic_Strain=F pbc="T T T"
W      -0.00000000       0.00000000      -0.00000000       74      -0.00000000       0.00000000       0.00000000 
W       1.56330948       1.56330948       1.56330948       74      -0.00000000       0.00000000      -0.00000000 
2
Lattice="3.098948315395085 -2.735987310816066e-31 -2.7359873108160665e-32 -2.735987310816066e-31 3.098948315395085 0.0 -2.7359873108160665e-32 0.0 3.098948315395085" Properties=species:S:1:pos:R:3:Z:I:1:forces:R:3 stress="-0.17470764987591175 -8.411466586126101e-29 -2.8038221953753667e-29 -8.411466586126101e-29 -0.1747076498759118 8.909210182682948e-18 -2.8038221953753667e-29 8.909210182682948e-18 -0.1747076498759118" energy=-22.1915799481 Minim_Constant_Volume=T Minim_Hydrostatic_Strain=F pbc="T T T"
W      -0.00000000       0.00000000      -0.00000000       74      -0.00000000      -0.00000000       0.00000000 
W       1.54947416       1.54947416       1.54947416       74       0.00000000       0.00000000      -0.00000000 
2
Lattice="3.0707744985421 -2.7111133221070307e-31 -2.7111133221070306e-32 -2.7111133221070307e-31 3.0707744985421 0.0 -2.7111133221070306e-32 0.0 3.0707744985421" Properties=species:S:1:pos:R:3:Z:I:1:forces:R:3 stress="-0.22316894443133664 -2.2844058932265435e-28 -1.4277536832665903e-28 -2.2844058932265435e-28 -0.2231689444313367 3.710432833935662e-18 -1.4277536832665903e-28 3.710432833935662e-18 -0.22316894443133678" energy=-22.0299324853 Minim_Constant_Volume=T Minim_Hydrostatic_Strain=F pbc="T T T"
W      -0.00000000       0.00000000      -0.00000000       74      -0.00000000      -0.00000000       0.00000000 
W       1.53538725       1.53538725       1.53538725       74       0.00000000       0.00000000       0.00000000 
2
Lattice="3.042073992311597 -2.685774331950093e-31 -2.685774331950093e-32 -2.685774331950093e-31 3.042073992311597 0.0 -2.685774331950093e-32 0.0 3.042073992311597" Properties=species:S:1:pos:R:3:Z:I:1:forces:R:3 stress="-0.22497513395989463 5.819284430473166e-29 9.047213240162744e-46 5.819284430473166e-29 -0.22497513395989507 -1.8311093185624163e-17 9.047213240162744e-46 -1.8311093185624163e-17 -0.2249751339598949" energy=-21.8447386285 Minim_Constant_Volume=T Minim_Hydrostatic_Strain=F pbc="T T T"
W      -0.00000000       0.00000000      -0.00000000       74       0.00000000       0.00000000       0.00000000 
W       1.52103700       1.52103700       1.52103700       74       0.00000000       0.00000000       0.00000000 
2
Lattice="3.206823400105269 -2.831227641690266e-31 -2.831227641690266e-32 -2.831227641690266e-31 3.206823400105269 0.0 -2.831227641690266e-32 0.0 3.206823400105269" Properties=species:S:1:pos:R:3:Z:I:1:forces:R:3 stress="0.04447741011519966 5.236716259973742e-29 5.236716259973742e-29 5.236716259973742e-29 0.04447741011519967 1.1641618831194434e-18 5.236716259973742e-29 1.1641618831194434e-18 0.04447741011519965" energy=-22.3737835789 Minim_Constant_Volume=T Minim_Hydrostatic_Strain=F pbc="T T T"
W      -0.00000000       0.00000000      -0.00000000       74       0.00000000       0.00000000       0.00000000 
W       1.60341170       1.60341170       1.60341170       74       0.00000000       0.00000000       0.00000000 
2
Lattice="3.2326859960174743 -2.8540611087374685e-31 -2.8540611087374685e-32 -2.8540611087374685e-31 3.2326859960174743 0.0 -2.8540611087374685e-32 0.0 3.2326859960174743" Properties=species:S:1:pos:R:3:Z:I:1:forces:R:3 stress="0.0812469671919181 2.8155997225662995e-46 7.246772421742103e-30 2.8155997225662995e-46 0.08124696719191815 2.7263247059415142e-18 7.246772421742103e-30 2.7263247059415142e-18 0.08124696719191812" energy=-22.322870767 Minim_Constant_Volume=T Minim_Hydrostatic_Strain=F pbc="T T T"
W      -0.00000000       0.00000000      -0.00000000       74       0.00000000       0.00000000      -0.00000000 
W       1.61634300       1.61634300       1.61634300       74      -0.00000000      -0.00000000       0.00000000 
2
Lattice="3.2581412645232786 -2.8765349561647744e-31 -2.8765349561647746e-32 -2.8765349561647744e-31 3.2581412645232786 0.0 -2.8765349561647746e-32 0.0 3.2581412645232786" Properties=species:S:1:pos:R:3:Z:I:1:forces:R:3 stress="0.11507593101977813 4.9931932283628177e-48 6.503918902494857e-49 4.9931932283628177e-48 0.11507593101977814 3.586845494606931e-18 6.503918902494857e-49 3.586845494606931e-18 0.11507593101977805" energy=-22.2437171988 Minim_Constant_Volume=T Minim_Hydrostatic_Strain=F pbc="T T T"
W      -0.00000000       0.00000000      -0.00000000       74       0.00000000      -0.00000000       0.00000000 
W       1.62907063       1.62907063       1.62907063       74      -0.00000000      -0.00000000       0.00000000 
2
Lattice="3.2832048745831686 -2.898663017722445e-31 -2.898663017722445e-32 -2.898663017722445e-31 3.2832048745831686 0.0 -2.898663017722445e-32 0.0 3.2832048745831686" Properties=species:S:1:pos:R:3:Z:I:1:forces:R:3 stress="0.14616844971331266 1.1709125166108004e-30 4.878802152545002e-31 1.1709125166108004e-30 0.1461684497133127 5.284641016056857e-18 4.878802152545002e-31 5.284641016056857e-18 0.14616844971331272" energy=-22.1384954767 Minim_Constant_Volume=T Minim_Hydrostatic_Strain=F pbc="T T T"
W      -0.00000000       0.00000000      -0.00000000       74      -0.00000000      -0.00000000       0.00000000 
W       1.64160244       1.64160244       1.64160244       74       0.00000000       0.00000000      -0.00000000 
2
Lattice="3.3078915524621815 -2.9204582948774856e-31 -2.920458294877486e-32 -2.9204582948774856e-31 3.3078915524621815 0.0 -2.920458294877486e-32 0.0 3.3078915524621815" Properties=species:S:1:pos:R:3:Z:I:1:forces:R:3 stress="0.1753248380364495 -1.845601238430201e-29 -3.691202476860403e-29 -1.845601238430201e-29 0.17532483803644933 -6.864843051772716e-18 -3.691202476860403e-29 -6.864843051772716e-18 0.1753248380364495" energy=-22.0091273731 Minim_Constant_Volume=T Minim_Hydrostatic_Strain=F pbc="T T T"
W      -0.00000000       0.00000000      -0.00000000       74       0.00000000       0.00000000       0.00000000 
W       1.65394578       1.65394578       1.65394578       74       0.00000000       0.00000000       0.00000000 
2
Lattice="3.332215157997401 -2.9419330241483968e-31 -2.941933024148397e-32 -2.9419330241483968e-31 3.332215157997401 0.0 -2.941933024148397e-32 0.0 3.332215157997401" Properties=species:S:1:pos:R:3:Z:I:1:forces:R:3 stress="0.20561279992155843 -4.91859605221847e-48 -1.0263444666695651e-48 -4.91859605221847e-48 0.20561279992155856 9.372194520401748e-18 -1.0263444666695651e-48 9.372194520401748e-18 0.20561279992155848" energy=-21.8560309298 Minim_Constant_Volume=T Minim_Hydrostatic_Strain=F pbc="T T T"
W      -0.00000000       0.00000000      -0.00000000       74       0.00000000      -0.00000000       0.00000000 
W       1.66610758       1.66610758       1.66610758       74      -0.00000000       0.00000000      -0.00000000 
