2
Lattice="2.9490659872265423 1.6707407254611617e-18 8.204395336211271e-35 -1.4745329936132705 2.553966062374821 9.0393895633741e-35 1.2757591812721389e-34 2.350056510590002e-34 4.759782072518986" Properties=species:S:1:pos:R:3:Z:I:1:forces:R:3 stress="-4.149678403858091e-05 -6.776263578034403e-21 1.8290489986730435e-35 -6.776263578034403e-21 -4.1496784038580896e-05 -2.1134282157722792e-35 1.8290489986730435e-35 -2.1134282157722792e-35 3.228959148574905e-05" energy=-12.1393224077 Minim_Constant_Volume=T Minim_Hydrostatic_Strain=F pbc="T T T"
Ti       0.00000000      -0.00000000       0.00000000       22       0.00000000      -0.00000000       0.00000000 
Ti       0.00000000       1.70264404       2.37989104       22       0.00000000      -0.00000000      -0.00000000 
2
Lattice="2.924282748398618 1.6567002236216e-18 8.135447577857701e-35 -1.4621413741993086 2.5325031479617817 8.963424715053284e-35 1.2650380090049428e-34 2.3303072028385523e-34 4.719782012709185" Properties=species:S:1:pos:R:3:Z:I:1:forces:R:3 stress="-0.016683886952003582 -8.673617379884035e-18 -1.4602189023967755e-34 -8.673617379884035e-18 -0.016683886952003575 -7.874118834957315e-35 -1.4602189023967755e-34 -7.874118834957315e-35 -0.01673665827728679" energy=-12.1319730507 Minim_Constant_Volume=T Minim_Hydrostatic_Strain=F pbc="T T T"
Ti       0.00000000      -0.00000000       0.00000000       22       0.00000000       0.00000000       0.00000000 
Ti       0.00000000       1.68833543       2.35989101       22      -0.00000000      -0.00000000      -0.00000000 
2
Lattice="2.899072159860474 1.6424176144273806e-18 8.065310919023556e-35 -1.4495360799302366 2.510670137843392 8.886149967080439e-35 1.2541319662333942e-34 2.310217347953484e-34 4.679092211978628" Properties=species:S:1:pos:R:3:Z:I:1:forces:R:3 stress="-0.03530237051119171 -6.938893903907228e-18 -5.9980301763630144e-34 -6.938893903907228e-18 -0.03530237051119169 -1.7334923245945617e-33 -5.9980301763630144e-34 -1.7334923245945617e-33 -0.03540794243407914" energy=-12.108790916 Minim_Constant_Volume=T Minim_Hydrostatic_Strain=F pbc="T T T"
Ti       0.00000000      -0.00000000       0.00000000       22      -0.00000000       0.00000000      -0.00000000 
Ti       0.00000000       1.67378009       2.33954611       22       0.00000000      -0.00000000      -0.00000000 
2
Lattice="2.8727151514684954 -1.5666728494925187e-16 3.7026008063426513e-35 -1.4363575757342475 2.4878442990081786 1.408187092440439e-32 5.494817606585388e-35 2.6268810317408873e-32 4.639942246415956" Properties=species:S:1:pos:R:3:Z:I:1:forces:R:3 stress="-0.05558600399724266 -1.3877787807814457e-17 -9.403960508116993e-34 -1.3877787807814457e-17 -0.0555860039972427 -2.0889437407322315e-33 -9.403960508116993e-34 -2.0889437407322315e-33 -0.05558091524894182" energy=-12.0681925663 Minim_Constant_Volume=T Minim_Hydrostatic_Strain=F pbc="T T T"
Ti      -0.00000000       0.00000000       0.00000000       22       0.00000000      -0.00000000      -0.00000000 
Ti       0.00000000       1.65856287       2.31997112       22      -0.00000000       0.00000000       0.00000000 
2
Lattice="2.846110708426207 -1.852770571395595e-16 4.4474989491599465e-33 -1.4230553542131033 2.464804175480021 5.8621548373430716e-33 7.178655312122023e-33 1.5038412246143963e-32 4.5993339280017445" Properties=species:S:1:pos:R:3:Z:I:1:forces:R:3 stress="-0.07850350613393932 -6.938893903907228e-18 6.753258744589875e-34 -6.938893903907228e-18 -0.07850350613393929 2.118306272057365e-33 6.753258744589875e-34 2.118306272057365e-33 -0.07850129035399571" energy=-12.0083554683 Minim_Constant_Volume=T Minim_Hydrostatic_Strain=F pbc="T T T"
Ti      -0.00000000       0.00000000       0.00000000       22       0.00000000      -0.00000000      -0.00000000 
Ti       0.00000000       1.64320278       2.29966696       22      -0.00000000       0.00000000      -0.00000000 
2
Lattice="2.8189202392239183 -3.6970990465781355e-16 -2.502697631854153e-33 -1.4094601196119592 2.4412565384100207 4.4362497697384646e-33 -4.0572957343463236e-33 5.884217539348302e-33 4.558253456280379" Properties=species:S:1:pos:R:3:Z:I:1:forces:R:3 stress="-0.10505925256258604 -6.1655409673562756e-65 -1.8392709348281903e-33 -6.1655409673562756e-65 -0.10505925256258608 -4.497649144016783e-33 -1.8392709348281903e-33 -4.497649144016783e-33 -0.10505382737813905" energy=-11.9262311262 Minim_Constant_Volume=T Minim_Hydrostatic_Strain=F pbc="T T T"
Ti       0.00000000      -0.00000000       0.00000000       22      -0.00000000       0.00000000       0.00000000 
Ti       0.00000000       1.62750436       2.27912673       22       0.00000000       0.00000000       0.00000000 
2
Lattice="2.974417676217467 1.0030102935494012e-17 4.413714556719833e-34 -1.487208838108733 2.575921269069804 -2.3390271045595314e-34 7.076193659738859e-34 -3.438558847161269e-35 4.7959634774459845" Properties=species:S:1:pos:R:3:Z:I:1:forces:R:3 stress="0.014989075073836719 1.734723475976807e-18 -2.6249298027724857e-35 1.734723475976807e-18 0.01498907507383673 -1.0437351232002864e-34 -2.6249298027724857e-35 -1.0437351232002864e-34 0.014952880293518125" energy=-12.1325313809 Minim_Constant_Volume=T Minim_Hydrostatic_Strain=F pbc="T T T"
Ti       0.00000000       0.00000000       0.00000000       22      -0.00000000       0.00000000      -0.00000000 
Ti       0.00000000       1.71728085       2.39798174       22       0.00000000      -0.00000000       0.00000000 
2
Lattice="2.999825725977253 -6.276986251933802e-18 6.8831011897798386e-34 -1.4999128629886258 2.5979252856223978 1.0862490413950327e-32 1.1067685703440264e-33 2.0855128897097226e-32 4.830065341819977" Properties=species:S:1:pos:R:3:Z:I:1:forces:R:3 stress="0.028846909356902765 -6.938893903907228e-18 3.045385736340731e-34 -6.938893903907228e-18 0.028846909356902734 7.296124060796362e-34 3.045385736340731e-34 7.296124060796362e-34 0.028875839387173287" energy=-12.1127745983 Minim_Constant_Volume=T Minim_Hydrostatic_Strain=F pbc="T T T"
Ti       0.00000000      -0.00000000       0.00000000       22       0.00000000      -0.00000000      -0.00000000 
Ti       0.00000000       1.73195019       2.41503267       22      -0.00000000       0.00000000       0.00000000 
2
Lattice="3.0238121709589385 4.682238812860433e-17 -7.681068221729265e-34 -1.5119060854794686 2.618698156323015 7.224163784295057e-33 -1.2378390032535974e-33 1.274460710186914e-32 4.866927460547028" Properties=species:S:1:pos:R:3:Z:I:1:forces:R:3 stress="0.04143743390829473 -3.469446951953614e-18 1.5639073215065277e-33 -3.469446951953614e-18 0.041437433908294685 1.0133252753092414e-33 1.5639073215065277e-33 1.0133252753092414e-33 0.04143769693825708" energy=-12.0811768773 Minim_Constant_Volume=T Minim_Hydrostatic_Strain=F pbc="T T T"
Ti       0.00000000       0.00000000      -0.00000000       22       0.00000000       0.00000000       0.00000000 
Ti       0.00000000       1.74579877       2.43346373       22       0.00000000       0.00000000       0.00000000 
2
Lattice="3.0470732228891433 4.718257518394324e-17 -7.740155796182815e-34 -1.523536611444571 2.6388428182133215 7.279736564427595e-33 -1.2473612340364649e-33 1.2842646580138922e-32 4.90436690651778" Properties=species:S:1:pos:R:3:Z:I:1:forces:R:3 stress="0.05278476732491358 3.469446951953614e-18 -2.728697180320156e-33 3.469446951953614e-18 0.05278476732491354 1.9281180027298195e-33 -2.728697180320156e-33 1.9281180027298195e-33 0.05287231449026269" energy=-12.0388559941 Minim_Constant_Volume=T Minim_Hydrostatic_Strain=F pbc="T T T"
Ti       0.00000000       0.00000000      -0.00000000       22      -0.00000000       0.00000000       0.00000000 
Ti       0.00000000       1.75922855       2.45218345       22       0.00000000      -0.00000000      -0.00000000 
2
Lattice="3.0699844081488745 4.753734470931931e-17 -7.79835464157104e-34 -1.5349922040744366 2.65868448667906 7.334473481091349e-33 -1.2567402420970978e-33 1.2939211458466271e-32 4.941243230307066" Properties=species:S:1:pos:R:3:Z:I:1:forces:R:3 stress="0.06303339159903672 -3.469446951953614e-17 6.809524860027347e-34 -3.469446951953614e-17 0.0630333915990366 1.5433025898346877e-33 6.809524860027347e-34 1.5433025898346877e-33 0.06310258144846095" energy=-11.9868458308 Minim_Constant_Volume=T Minim_Hydrostatic_Strain=F pbc="T T T"
Ti       0.00000000       0.00000000      -0.00000000       22       0.00000000      -0.00000000      -0.00000000 
Ti       0.00000000       1.77245632       2.47062162       22      -0.00000000       0.00000000       0.00000000 
2
Lattice="3.092077669996314 3.1657489638469464e-16 -1.268883498326175e-32 -1.5460388349981562 2.6778178126914045 2.762528987404995e-32 -2.042409714533639e-32 3.9577845249190245e-32 4.97912546026106" Properties=species:S:1:pos:R:3:Z:I:1:forces:R:3 stress="0.07210900979142378 -1.3877787807814457e-17 5.97609106224045e-33 -1.3877787807814457e-17 0.07210900979142373 1.1315614999057255e-32 5.97609106224045e-33 1.1315614999057255e-32 0.07211073149252784" energy=-11.9261832997 Minim_Constant_Volume=T Minim_Hydrostatic_Strain=F pbc="T T T"
Ti      -0.00000000       0.00000000      -0.00000000       22      -0.00000000       0.00000000      -0.00000000 
Ti       0.00000000       1.78521188       2.48956273       22       0.00000000      -0.00000000       0.00000000 
