2
Lattice="2.932688944845848 -3.741273954228478e-17 -5.9851037807129055e-34 -1.4663444724229233 2.5397831276342853 2.2216271005522933e-34 -1.165355232951164e-33 -2.528027793659147e-34 4.7861025653423805" Properties=species:S:1:pos:R:3:Z:I:1:forces:R:3 stress="0.00026426703985559473 -1.0891489913917005e-19 1.1699498515690862e-33 -1.0891489913917005e-19 0.00026426703985559446 6.733861398687135e-34 1.1699498515690862e-33 6.733861398687135e-34 -0.00040752200505996195" energy=-7.87771639566 Minim_Constant_Volume=T Minim_Hydrostatic_Strain=F pbc="T T T"
Si      -0.00000000       0.00000000       0.00000000       14      -0.00000000       0.00000000       0.00000000 
Si       0.00000000       1.69318875       2.39305128       14      -0.00000000       0.00000000      -0.00000000 
2
Lattice="2.9080433347296495 -3.709833190837647e-17 -5.934806412987059e-34 -1.454021667364824 2.5184394031818904 2.202957082567597e-34 -1.1555618688207258e-33 -2.5067828581964424e-34 4.74588131446309" Properties=species:S:1:pos:R:3:Z:I:1:forces:R:3 stress="-0.11885088776974541 5.439310865571202e-17 -6.172845291288059e-34 5.439310865571202e-17 -0.11885088776974535 -1.2941625536062067e-33 -6.172845291288059e-34 -1.2941625536062067e-33 -0.11948664243140517" energy=-7.82574516305 Minim_Constant_Volume=T Minim_Hydrostatic_Strain=F pbc="T T T"
Si      -0.00000000       0.00000000       0.00000000       14      -0.00000000       0.00000000       0.00000000 
Si       0.00000000       1.67895960       2.37294066       14       0.00000000      -0.00000000      -0.00000000 
2
Lattice="2.8829727481035414 -3.6778502787301997e-17 -5.883641742739872e-34 -1.44148637405177 2.4967276382759027 2.1839651281793917e-34 -1.1455996328429766e-33 -2.4851715857478155e-34 4.704966508555448" Properties=species:S:1:pos:R:3:Z:I:1:forces:R:3 stress="-0.2526136644571613 -1.2304244891107968e-16 -8.288117710440611e-34 -1.2304244891107968e-16 -0.25261366445716127 -1.2124809335635303e-33 -8.288117710440611e-34 -1.2124809335635303e-33 -0.2531830748076721" energy=-7.66114600433 Minim_Constant_Volume=T Minim_Hydrostatic_Strain=F pbc="T T T"
Si      -0.00000000       0.00000000       0.00000000       14      -0.00000000       0.00000000       0.00000000 
Si       0.00000000       1.66448509       2.35248325       14       0.00000000      -0.00000000      -0.00000000 
2
Lattice="2.857458376852683 -3.645301224120397e-17 -5.831571385907653e-34 -1.428729188426341 2.474631544611072 2.1646369895017185e-34 -1.1354610512846075e-33 -2.463177763398102e-34 4.663327453069715" Properties=species:S:1:pos:R:3:Z:I:1:forces:R:3 stress="-0.4015982707979141 -8.79185596755435e-17 -1.0757966223147008e-33 -8.79185596755435e-17 -0.4015982707979136 -1.551716802266395e-33 -1.0757966223147008e-33 -1.551716802266395e-33 -0.40207062696535806" energy=-7.37061980932 Minim_Constant_Volume=T Minim_Hydrostatic_Strain=F pbc="T T T"
Si      -0.00000000       0.00000000       0.00000000       14      -0.00000000       0.00000000      -0.00000000 
Si       0.00000000       1.64975436       2.33166373       14       0.00000000      -0.00000000       0.00000000 
2
Lattice="2.8314800445989516 -3.612160287709124e-17 -5.778554166041331e-34 -1.4157400222994752 2.4521336489313876 2.144957382135423e-34 -1.1251381067089696e-33 -2.4407839987658978e-34 4.62093122047184" Properties=species:S:1:pos:R:3:Z:I:1:forces:R:3 stress="-0.5664120596715899 1.7748567825038837e-17 -1.516515183225055e-33 1.7748567825038837e-17 -0.5664120596715891 -9.494473529286295e-33 -1.516515183225055e-33 -9.494473529286295e-33 -0.5667565187419318" energy=-6.94034210169 Minim_Constant_Volume=T Minim_Hydrostatic_Strain=F pbc="T T T"
Si      -0.00000000       0.00000000       0.00000000       14      -0.00000000      -0.00000000       0.00000000 
Si       0.00000000       1.63475577       2.31046561       14       0.00000000       0.00000000      -0.00000000 
2
Lattice="2.8050160659837395 -3.578399805168908e-17 -5.724545827127318e-34 -1.402508032991869 2.429215171165406 2.124909878569346e-34 -1.1146221820596317e-33 -2.417971598702933e-34 4.577742420595182" Properties=species:S:1:pos:R:3:Z:I:1:forces:R:3 stress="-0.7477110652362627 3.4901258222418756e-16 -2.321244629194985e-33 3.4901258222418756e-16 -0.7477110652362626 -5.7968828166736364e-33 -2.321244629194985e-33 -5.7968828166736364e-33 -0.7478969021884014" energy=-6.35592667121 Minim_Constant_Volume=T Minim_Hydrostatic_Strain=F pbc="T T T"
Si      -0.00000000       0.00000000       0.00000000       14       0.00000000       0.00000000       0.00000000 
Si       0.00000000       1.61947678       2.28887121       14       0.00000000       0.00000000       0.00000000 
2
Lattice="2.9569271427328614 -3.7721949759111523e-17 -6.034569691533822e-34 -1.47846357136643 2.560774022746393 2.2399884877662273e-34 -1.1749867047083646e-33 -2.5489215328449103e-34 4.825658925825203" Properties=species:S:1:pos:R:3:Z:I:1:forces:R:3 stress="0.10528627135184698 -2.7663647713779776e-17 4.240586868886323e-34 -2.7663647713779776e-17 0.10528627135184693 2.0947091196087498e-33 4.240586868886323e-34 2.0947091196087498e-33 0.1046080747541735" energy=-7.82985694709 Minim_Constant_Volume=T Minim_Hydrostatic_Strain=F pbc="T T T"
Si      -0.00000000       0.00000000       0.00000000       14      -0.00000000       0.00000000       0.00000000 
Si       0.00000000       1.70718268       2.41282946       14       0.00000000      -0.00000000      -0.00000000 
2
Lattice="2.980774359212517 -3.802617216924126e-17 -6.083237677875403e-34 -1.4903871796062578 2.5814263180273214 2.2580536912024972e-34 -1.1844628131666881e-33 -2.5694782394018495e-34 4.864577210756219" Properties=species:S:1:pos:R:3:Z:I:1:forces:R:3 stress="0.19676144645039395 -1.1452534092010863e-16 1.6583283391469974e-33 -1.1452534092010863e-16 0.1967614464503937 6.2346441359988145e-34 1.6583283391469974e-33 6.2346441359988145e-34 0.19610548716031295" energy=-7.69447458379 Minim_Constant_Volume=T Minim_Hydrostatic_Strain=F pbc="T T T"
Si      -0.00000000       0.00000000       0.00000000       14      -0.00000000       0.00000000       0.00000000 
Si       0.00000000       1.72095088       2.43228861       14       0.00000000      -0.00000000      -0.00000000 
2
Lattice="3.0042459898510776 -3.8325603176152676e-17 -6.13113915938821e-34 -1.5021229949255381 2.60175334642856 2.2758343736074364e-34 -1.1937896760235948e-33 -2.5897111845701623e-34 4.902882545459177" Properties=species:S:1:pos:R:3:Z:I:1:forces:R:3 stress="0.2752379448036004 -8.199691573120998e-17 -7.293981421965881e-34 -8.199691573120998e-17 0.27523794480360025 2.2323785889637114e-33 -7.293981421965881e-34 2.2323785889637114e-33 0.27463157249985265" energy=-7.48339038754 Minim_Constant_Volume=T Minim_Hydrostatic_Strain=F pbc="T T T"
Si      -0.00000000       0.00000000       0.00000000       14       0.00000000       0.00000000       0.00000000 
Si       0.00000000       1.73450223       2.45144127       14       0.00000000      -0.00000000      -0.00000000 
2
Lattice="3.0273564825830843 -3.8620427094248724e-17 -6.178303621772659e-34 -1.5136782412915415 2.621767620228453 2.293341479859116e-34 -1.2029730344185095e-33 -2.60963282271537e-34 4.940598508737648" Properties=species:S:1:pos:R:3:Z:I:1:forces:R:3 stress="0.34127427447682496 1.1578385564407394e-16 1.0063608375115045e-33 1.1578385564407394e-16 0.34127427447682523 1.6404015293896697e-33 1.0063608375115045e-33 1.6404015293896697e-33 0.3407432183764627" energy=-7.20793331577 Minim_Constant_Volume=T Minim_Hydrostatic_Strain=F pbc="T T T"
Si      -0.00000000       0.00000000       0.00000000       14       0.00000000      -0.00000000      -0.00000000 
Si       0.00000000       1.74784508       2.47029925       14      -0.00000000       0.00000000       0.00000000 
2
Lattice="3.0501194161085037 -3.891081714898043e-17 -6.224758776773854e-34 -1.5250597080542512 2.641480898926123 2.3105852963562657e-34 -1.2120182840852999e-33 -2.629254858907995e-34 4.977747260817952" Properties=species:S:1:pos:R:3:Z:I:1:forces:R:3 stress="0.3954464602325718 3.1961352690540005e-17 2.6808163497421752e-33 3.1961352690540005e-17 0.3954464602325717 1.0115047497211778e-33 2.6808163497421752e-33 1.0115047497211778e-33 0.3950144949444166" energy=-6.87892778059 Minim_Constant_Volume=T Minim_Hydrostatic_Strain=F pbc="T T T"
Si      -0.00000000       0.00000000       0.00000000       14      -0.00000000       0.00000000       0.00000000 
Si       0.00000000       1.76098727       2.48887363       14       0.00000000      -0.00000000      -0.00000000 
2
Lattice="3.0725475702169773 -3.919693637398356e-17 -6.270530705701043e-34 -1.536273785108488 2.6609042501440534 2.327575504291655e-34 -1.2209305032968463e-33 -2.648588309544258e-34 5.014349658117234" Properties=species:S:1:pos:R:3:Z:I:1:forces:R:3 stress="0.43835389235528666 6.139931246593343e-17 1.1722455580549227e-33 6.139931246593343e-17 0.43835389235528666 4.085981474233513e-33 1.1722455580549227e-33 4.085981474233513e-33 0.4380424990386938" energy=-6.50667543495 Minim_Constant_Volume=T Minim_Hydrostatic_Strain=F pbc="T T T"
Si      -0.00000000       0.00000000       0.00000000       14       0.00000000       0.00000000       0.00000000 
Si       0.00000000       1.77393617       2.50717483       14       0.00000000       0.00000000       0.00000000 
