40
Lattice="4.496991609846928 2.8749527365604873e-18 -3.562435211413283e-18 2.8749527365604873e-18 4.49699160984693 -1.0935937366251278e-18 -2.519022095528065e-17 -7.732875470307629e-18 41.798532622617714" Properties=species:S:1:pos:R:3:Z:I:1:forces:R:3 energy=-436.999437511 pbc="T T T"
W      -0.00000000      -0.00000000      -0.00000000       74      -0.00000000      -0.00000000       1.62561358 
W      -0.00000000       2.24849580       1.58992663       74       0.00000000       0.00000000      -1.54272943 
W       2.24849580       2.24849580      -0.00000000       74      -0.00000000       0.00000000       1.62561358 
W       2.24849580      -0.00000000       1.58992663       74      -0.00000000       0.00000000      -1.54272943 
W      -0.00000000      -0.00000000       3.17985326       74      -0.00000000       0.00000000      -0.06027340 
W      -0.00000000       2.24849580       4.76977989       74       0.00000000       0.00000000      -0.03017268 
W       2.24849580       2.24849580       3.17985326       74      -0.00000000      -0.00000000      -0.06027340 
W       2.24849580      -0.00000000       4.76977989       74       0.00000000      -0.00000000      -0.03017268 
W      -0.00000000      -0.00000000       6.35970652       74      -0.00000000       0.00000000       0.00000000 
W      -0.00000000       2.24849580       7.94963316       74       0.00000000       0.00000000       0.00000000 
W       2.24849580       2.24849580       6.35970652       74      -0.00000000      -0.00000000      -0.00000000 
W       2.24849580      -0.00000000       7.94963316       74      -0.00000000       0.00000000       0.00000000 
W      -0.00000000      -0.00000000       9.53955979       74      -0.00000000       0.00000000       0.00000000 
W      -0.00000000       2.24849580      11.12948642       74       0.00000000      -0.00000000      -0.00000000 
W       2.24849580       2.24849580       9.53955979       74      -0.00000000      -0.00000000       0.00000000 
W       2.24849580      -0.00000000      11.12948642       74      -0.00000000       0.00000000      -0.00000000 
W      -0.00000000      -0.00000000      12.71941305       74      -0.00000000       0.00000000      -0.00000000 
W      -0.00000000       2.24849580      14.30933968       74       0.00000000      -0.00000000      -0.00000000 
W       2.24849580       2.24849580      12.71941305       74       0.00000000      -0.00000000      -0.00000000 
W       2.24849580      -0.00000000      14.30933968       74       0.00000000       0.00000000       0.00000000 
W      -0.00000000      -0.00000000      15.89926631       74      -0.00000000       0.00000000       0.00000000 
W      -0.00000000       2.24849580      17.48919294       74      -0.00000000      -0.00000000      -0.00000000 
W       2.24849580       2.24849580      15.89926631       74       0.00000000      -0.00000000      -0.00000000 
W       2.24849580      -0.00000000      17.48919294       74       0.00000000       0.00000000      -0.00000000 
W      -0.00000000      -0.00000000      19.07911957       74      -0.00000000       0.00000000      -0.00000000 
W      -0.00000000       2.24849580      20.66904620       74       0.00000000      -0.00000000       0.00000000 
W       2.24849580       2.24849580      19.07911957       74      -0.00000000      -0.00000000      -0.00000000 
W       2.24849580      -0.00000000      20.66904620       74      -0.00000000       0.00000000      -0.00000000 
W      -0.00000000      -0.00000000      22.25897284       74      -0.00000000       0.00000000       0.00000000 
W      -0.00000000       2.24849580      23.84889947       74       0.00000000      -0.00000000      -0.00000000 
W       2.24849580       2.24849580      22.25897284       74       0.00000000      -0.00000000       0.00000000 
W       2.24849580      -0.00000000      23.84889947       74      -0.00000000       0.00000000       0.00000000 
W      -0.00000000      -0.00000000      25.43882610       74      -0.00000000       0.00000000       0.03017268 
W      -0.00000000       2.24849580      27.02875273       74       0.00000000      -0.00000000       0.06027340 
W       2.24849580       2.24849580      25.43882610       74      -0.00000000      -0.00000000       0.03017268 
W       2.24849580      -0.00000000      27.02875273       74      -0.00000000       0.00000000       0.06027340 
W      -0.00000000      -0.00000000      28.61867936       74      -0.00000000       0.00000000       1.54272943 
W      -0.00000000       2.24849580      30.20860599       74       0.00000000       0.00000000      -1.62561358 
W       2.24849580       2.24849580      28.61867936       74      -0.00000000      -0.00000000       1.54272943 
W       2.24849580      -0.00000000      30.20860599       74       0.00000000      -0.00000000      -1.62561358 
40
Lattice="4.496991609846928 2.8749527365604873e-18 -3.562435211413283e-18 2.8749527365604873e-18 4.49699160984693 -1.0935937366251278e-18 -2.519022095528065e-17 -7.732875470307629e-18 41.798532622617714" Properties=species:S:1:pos:R:3:Z:I:1:forces:R:3 energy=-437.525693467 pbc="T T T"
W      -0.00000000      -0.00000000       0.06322305       74      -0.00000000      -0.00000000       0.67348409 
W      -0.00000000       2.24849580       1.52992709       74       0.00000000       0.00000000      -0.29183540 
W       2.24849580       2.24849580       0.06322305       74       0.00000000       0.00000000       0.67348409 
W       2.24849580      -0.00000000       1.52992709       74      -0.00000000      -0.00000000      -0.29183540 
W      -0.00000000      -0.00000000       3.17750912       74      -0.00000000       0.00000000      -0.13793268 
W      -0.00000000       2.24849580       4.76860642       74       0.00000000      -0.00000000      -0.24517506 
W       2.24849580       2.24849580       3.17750912       74      -0.00000000       0.00000000      -0.13793268 
W       2.24849580      -0.00000000       4.76860642       74       0.00000000       0.00000000      -0.24517506 
W      -0.00000000      -0.00000000       6.35970652       74      -0.00000000       0.00000000       0.00105001 
W      -0.00000000       2.24849580       7.94963316       74       0.00000000      -0.00000000      -0.00721120 
W       2.24849580       2.24849580       6.35970652       74      -0.00000000      -0.00000000       0.00105001 
W       2.24849580      -0.00000000       7.94963316       74      -0.00000000       0.00000000      -0.00721120 
W      -0.00000000       0.00000000       9.53955979       74      -0.00000000       0.00000000       0.00013361 
W      -0.00000000       2.24849580      11.12948642       74       0.00000000      -0.00000000      -0.00007531 
W       2.24849580       2.24849580       9.53955979       74      -0.00000000      -0.00000000       0.00013361 
W       2.24849580       0.00000000      11.12948642       74      -0.00000000       0.00000000      -0.00007531 
W      -0.00000000       0.00000000      12.71941305       74      -0.00000000       0.00000000      -0.00000000 
W      -0.00000000       2.24849580      14.30933968       74       0.00000000      -0.00000000       0.00000000 
W       2.24849580       2.24849580      12.71941305       74       0.00000000       0.00000000       0.00000000 
W       2.24849580       0.00000000      14.30933968       74      -0.00000000      -0.00000000      -0.00000000 
W      -0.00000000       0.00000000      15.89926631       74      -0.00000000       0.00000000      -0.00000000 
W      -0.00000000       2.24849580      17.48919294       74       0.00000000      -0.00000000       0.00000000 
W       2.24849580       2.24849580      15.89926631       74       0.00000000       0.00000000       0.00000000 
W       2.24849580      -0.00000000      17.48919294       74       0.00000000      -0.00000000      -0.00000000 
W      -0.00000000       0.00000000      19.07911957       74      -0.00000000      -0.00000000       0.00007531 
W      -0.00000000       2.24849580      20.66904620       74       0.00000000       0.00000000      -0.00013361 
W       2.24849580       2.24849580      19.07911957       74       0.00000000       0.00000000       0.00007531 
W       2.24849580       0.00000000      20.66904620       74       0.00000000       0.00000000      -0.00013361 
W      -0.00000000       0.00000000      22.25897284       74      -0.00000000       0.00000000       0.00721120 
W      -0.00000000       2.24849580      23.84889947       74       0.00000000       0.00000000      -0.00105001 
W       2.24849580       2.24849580      22.25897284       74      -0.00000000      -0.00000000       0.00721120 
W       2.24849580       0.00000000      23.84889947       74      -0.00000000       0.00000000      -0.00105001 
W      -0.00000000       0.00000000      25.43999957       74      -0.00000000       0.00000000       0.24517506 
W      -0.00000000       2.24849580      27.03109687       74       0.00000000       0.00000000       0.13793268 
W       2.24849580       2.24849580      25.43999957       74      -0.00000000       0.00000000       0.24517506 
W       2.24849580       0.00000000      27.03109687       74       0.00000000       0.00000000       0.13793268 
W      -0.00000000       0.00000000      28.67867890       74      -0.00000000       0.00000000       0.29183540 
W      -0.00000000       2.24849580      30.14538294       74       0.00000000      -0.00000000      -0.67348409 
W       2.24849580       2.24849580      28.67867890       74       0.00000000       0.00000000       0.29183540 
W       2.24849580      -0.00000000      30.14538294       74       0.00000000      -0.00000000      -0.67348409 
40
Lattice="4.496991609846928 2.8749527365604873e-18 -3.562435211413283e-18 2.8749527365604873e-18 4.49699160984693 -1.0935937366251278e-18 -2.519022095528065e-17 -7.732875470307629e-18 41.798532622617714" Properties=species:S:1:pos:R:3:Z:I:1:forces:R:3 energy=-437.583660384 pbc="T T T"
W      -0.00000000      -0.00000000       0.09648215       74       0.00000000      -0.00000000       0.10017144 
W      -0.00000000       2.24849580       1.50555929       74       0.00000000       0.00000000       0.32650278 
W       2.24849580       2.24849580       0.09648215       74       0.00000000       0.00000000       0.10017144 
W       2.24849580      -0.00000000       1.50555929       74       0.00000000       0.00000000       0.32650278 
W      -0.00000000       0.00000000       3.17393564       74      -0.00000000       0.00000000      -0.12527372 
W      -0.00000000       2.24849580       4.76316858       74       0.00000000       0.00000000      -0.24439066 
W       2.24849580       2.24849580       3.17393564       74      -0.00000000      -0.00000000      -0.12527372 
W       2.24849580      -0.00000000       4.76316858       74       0.00000000      -0.00000000      -0.24439066 
W      -0.00000000       0.00000000       6.35972828       74      -0.00000000      -0.00000000      -0.03790585 
W      -0.00000000       2.24849580       7.94948375       74       0.00000000      -0.00000000      -0.02612567 
W       2.24849580       2.24849580       6.35972828       74       0.00000000       0.00000000      -0.03790585 
W       2.24849580      -0.00000000       7.94948375       74       0.00000000      -0.00000000      -0.02612567 
W      -0.00000000       0.00000000       9.53956255       74      -0.00000000       0.00000000       0.00042375 
W      -0.00000000       2.24849580      11.12948486       74       0.00000000       0.00000000      -0.00098828 
W       2.24849580       2.24849580       9.53956255       74       0.00000000      -0.00000000       0.00042375 
W       2.24849580       0.00000000      11.12948486       74      -0.00000000      -0.00000000      -0.00098828 
W      -0.00000000       0.00000000      12.71941305       74      -0.00000000       0.00000000       0.00004059 
W      -0.00000000       2.24849580      14.30933968       74       0.00000000       0.00000000      -0.00001722 
W       2.24849580       2.24849580      12.71941305       74      -0.00000000      -0.00000000       0.00004059 
W       2.24849580      -0.00000000      14.30933968       74       0.00000000      -0.00000000      -0.00001722 
W      -0.00000000       0.00000000      15.89926631       74      -0.00000000       0.00000000       0.00001722 
W      -0.00000000       2.24849580      17.48919294       74       0.00000000      -0.00000000      -0.00004059 
W       2.24849580       2.24849580      15.89926631       74      -0.00000000      -0.00000000       0.00001722 
W       2.24849580      -0.00000000      17.48919294       74       0.00000000       0.00000000      -0.00004059 
W      -0.00000000       0.00000000      19.07912113       74      -0.00000000       0.00000000       0.00098828 
W      -0.00000000       2.24849580      20.66904344       74       0.00000000      -0.00000000      -0.00042375 
W       2.24849580       2.24849580      19.07912113       74      -0.00000000      -0.00000000       0.00098828 
W       2.24849580       0.00000000      20.66904344       74      -0.00000000       0.00000000      -0.00042375 
W      -0.00000000       0.00000000      22.25912224       74      -0.00000000      -0.00000000       0.02612567 
W      -0.00000000       2.24849580      23.84887771       74       0.00000000       0.00000000       0.03790585 
W       2.24849580       2.24849580      22.25912224       74      -0.00000000       0.00000000       0.02612567 
W       2.24849580       0.00000000      23.84887771       74      -0.00000000      -0.00000000       0.03790585 
W      -0.00000000       0.00000000      25.44543741       74      -0.00000000      -0.00000000       0.24439066 
W      -0.00000000       2.24849580      27.03467036       74       0.00000000       0.00000000       0.12527372 
W       2.24849580       2.24849580      25.44543741       74      -0.00000000       0.00000000       0.24439066 
W       2.24849580       0.00000000      27.03467036       74       0.00000000      -0.00000000       0.12527372 
W      -0.00000000       0.00000000      28.70304670       74      -0.00000000       0.00000000      -0.32650278 
W      -0.00000000       2.24849580      30.11212384       74       0.00000000       0.00000000      -0.10017144 
W       2.24849580       2.24849580      28.70304670       74       0.00000000      -0.00000000      -0.32650278 
W       2.24849580      -0.00000000      30.11212384       74      -0.00000000       0.00000000      -0.10017144 
40
Lattice="4.496991609846928 2.8749527365604873e-18 -3.562435211413283e-18 2.8749527365604873e-18 4.49699160984693 -1.0935937366251278e-18 -2.519022095528065e-17 -7.732875470307629e-18 41.798532622617714" Properties=species:S:1:pos:R:3:Z:I:1:forces:R:3 energy=-437.605433695 pbc="T T T"
W      -0.00000000      -0.00000000       0.09876438       74       0.00000000       0.00000000       0.23071262 
W      -0.00000000       2.24849580       1.52592476       74       0.00000000      -0.00000000      -0.04933088 
W       2.24849580       2.24849580       0.09876438       74      -0.00000000      -0.00000000       0.23071262 
W       2.24849580      -0.00000000       1.52592476       74       0.00000000       0.00000000      -0.04933088 
W      -0.00000000       0.00000000       3.16733141       74      -0.00000000       0.00000000      -0.00986679 
W      -0.00000000       2.24849580       4.75010563       74      -0.00000000      -0.00000000       0.00767302 
W       2.24849580       2.24849580       3.16733141       74       0.00000000      -0.00000000      -0.00986679 
W       2.24849580      -0.00000000       4.75010563       74      -0.00000000       0.00000000       0.00767302 
W      -0.00000000       0.00000000       6.35775940       74       0.00000000       0.00000000      -0.10603178 
W      -0.00000000       2.24849580       7.94811273       74       0.00000000       0.00000000      -0.06157098 
W       2.24849580       2.24849580       6.35775940       74      -0.00000000       0.00000000      -0.10603178 
W       2.24849580      -0.00000000       7.94811273       74       0.00000000      -0.00000000      -0.06157098 
W      -0.00000000       0.00000000       9.53958482       74       0.00000000       0.00000000      -0.01309452 
W      -0.00000000       2.24849580      11.12943334       74       0.00000000      -0.00000000      -0.00578574 
W       2.24849580       2.24849580       9.53958482       74       0.00000000       0.00000000      -0.01309452 
W       2.24849580       0.00000000      11.12943334       74      -0.00000000      -0.00000000      -0.00578574 
W      -0.00000000       0.00000000      12.71941516       74      -0.00000000       0.00000000       0.00002178 
W      -0.00000000       2.24849580      14.30933878       74      -0.00000000      -0.00000000      -0.00031061 
W       2.24849580       2.24849580      12.71941516       74       0.00000000      -0.00000000       0.00002178 
W       2.24849580      -0.00000000      14.30933878       74      -0.00000000       0.00000000      -0.00031061 
W      -0.00000000       0.00000000      15.89926721       74      -0.00000000      -0.00000000       0.00031061 
W      -0.00000000       2.24849580      17.48919083       74       0.00000000       0.00000000      -0.00002178 
W       2.24849580       2.24849580      15.89926721       74       0.00000000       0.00000000       0.00031061 
W       2.24849580       0.00000000      17.48919083       74       0.00000000      -0.00000000      -0.00002178 
W      -0.00000000       0.00000000      19.07917265       74       0.00000000       0.00000000       0.00578573 
W      -0.00000000       2.24849580      20.66902117       74       0.00000000       0.00000000       0.01309452 
W       2.24849580       2.24849580      19.07917265       74       0.00000000      -0.00000000       0.00578573 
W       2.24849580       0.00000000      20.66902117       74      -0.00000000      -0.00000000       0.01309452 
W      -0.00000000       0.00000000      22.26049326       74      -0.00000000      -0.00000000       0.06157098 
W      -0.00000000       2.24849580      23.85084659       74       0.00000000       0.00000000       0.10603178 
W       2.24849580       2.24849580      22.26049326       74       0.00000000       0.00000000       0.06157098 
W       2.24849580      -0.00000000      23.85084659       74      -0.00000000      -0.00000000       0.10603178 
W      -0.00000000       0.00000000      25.45850036       74       0.00000000      -0.00000000      -0.00767302 
W      -0.00000000       2.24849580      27.04127458       74       0.00000000       0.00000000       0.00986679 
W       2.24849580       2.24849580      25.45850036       74       0.00000000       0.00000000      -0.00767302 
W       2.24849580       0.00000000      27.04127458       74      -0.00000000      -0.00000000       0.00986679 
W      -0.00000000       0.00000000      28.68268124       74       0.00000000      -0.00000000       0.04933088 
W      -0.00000000       2.24849580      30.10984161       74       0.00000000       0.00000000      -0.23071262 
W       2.24849580       2.24849580      28.68268124       74      -0.00000000       0.00000000       0.04933088 
W       2.24849580      -0.00000000      30.10984161       74      -0.00000000      -0.00000000      -0.23071262 
40
Lattice="4.496991609846928 2.8749527365604873e-18 -3.562435211413283e-18 2.8749527365604873e-18 4.49699160984693 -1.0935937366251278e-18 -2.519022095528065e-17 -7.732875470307629e-18 41.798532622617714" Properties=species:S:1:pos:R:3:Z:I:1:forces:R:3 energy=-437.613096663 pbc="T T T"
W      -0.00000000      -0.00000000       0.10929497       74       0.00000000       0.00000000       0.10474431 
W      -0.00000000       2.24849580       1.52576178       74       0.00000000      -0.00000000       0.01559560 
W       2.24849580       2.24849580       0.10929497       74      -0.00000000       0.00000000       0.10474431 
W       2.24849580       0.00000000       1.52576178       74       0.00000000      -0.00000000       0.01559560 
W      -0.00000000       0.00000000       3.16474295       74       0.00000000       0.00000000       0.02574386 
W      -0.00000000       2.24849580       4.74571184       74       0.00000000      -0.00000000       0.05773100 
W       2.24849580       2.24849580       3.16474295       74       0.00000000      -0.00000000       0.02574386 
W       2.24849580      -0.00000000       4.74571184       74      -0.00000000       0.00000000       0.05773100 
W      -0.00000000       0.00000000       6.35567945       74      -0.00000000       0.00000000      -0.10772269 
W      -0.00000000       2.24849580       7.94682182       74       0.00000000      -0.00000000      -0.06707538 
W       2.24849580       2.24849580       6.35567945       74      -0.00000000      -0.00000000      -0.10772269 
W       2.24849580      -0.00000000       7.94682182       74       0.00000000       0.00000000      -0.06707538 
W      -0.00000000       0.00000000       9.53940841       74       0.00000000      -0.00000000      -0.02488172 
W      -0.00000000       2.24849580      11.12933656       74      -0.00000000       0.00000000      -0.00994680 
W       2.24849580       2.24849580       9.53940841       74       0.00000000       0.00000000      -0.02488172 
W       2.24849580       0.00000000      11.12933656       74      -0.00000000      -0.00000000      -0.00994680 
W      -0.00000000       0.00000000      12.71941610       74      -0.00000000      -0.00000000      -0.00105996 
W      -0.00000000       2.24849580      14.30933416       74      -0.00000000      -0.00000000      -0.00064519 
W       2.24849580       2.24849580      12.71941610       74       0.00000000       0.00000000      -0.00105996 
W       2.24849580      -0.00000000      14.30933416       74       0.00000000       0.00000000      -0.00064519 
W      -0.00000000       0.00000000      15.89927183       74       0.00000000      -0.00000000       0.00064519 
W      -0.00000000       2.24849580      17.48918989       74      -0.00000000       0.00000000       0.00105996 
W       2.24849580       2.24849580      15.89927183       74       0.00000000       0.00000000       0.00064519 
W       2.24849580       0.00000000      17.48918989       74       0.00000000      -0.00000000       0.00105996 
W      -0.00000000       0.00000000      19.07926943       74      -0.00000000      -0.00000000       0.00994680 
W      -0.00000000       2.24849580      20.66919758       74      -0.00000000       0.00000000       0.02488172 
W       2.24849580       2.24849580      19.07926943       74      -0.00000000       0.00000000       0.00994680 
W       2.24849580       0.00000000      20.66919758       74      -0.00000000      -0.00000000       0.02488172 
W      -0.00000000       0.00000000      22.26178417       74      -0.00000000      -0.00000000       0.06707538 
W      -0.00000000       2.24849580      23.85292654       74       0.00000000       0.00000000       0.10772269 
W       2.24849580       2.24849580      22.26178417       74      -0.00000000       0.00000000       0.06707538 
W       2.24849580      -0.00000000      23.85292654       74      -0.00000000      -0.00000000       0.10772269 
W      -0.00000000       0.00000000      25.46289415       74      -0.00000000      -0.00000000      -0.05773100 
W      -0.00000000       2.24849580      27.04386304       74       0.00000000       0.00000000      -0.02574386 
W       2.24849580       2.24849580      25.46289415       74      -0.00000000      -0.00000000      -0.05773100 
W       2.24849580       0.00000000      27.04386304       74       0.00000000      -0.00000000      -0.02574386 
W      -0.00000000       0.00000000      28.68284421       74       0.00000000      -0.00000000      -0.01559560 
W      -0.00000000       2.24849580      30.09931102       74      -0.00000000       0.00000000      -0.10474431 
W       2.24849580       2.24849580      28.68284421       74      -0.00000000       0.00000000      -0.01559560 
W       2.24849580      -0.00000000      30.09931102       74      -0.00000000      -0.00000000      -0.10474431 
40
Lattice="4.496991609846928 2.8749527365604873e-18 -3.562435211413283e-18 2.8749527365604873e-18 4.49699160984693 -1.0935937366251278e-18 -2.519022095528065e-17 -7.732875470307629e-18 41.798532622617714" Properties=species:S:1:pos:R:3:Z:I:1:forces:R:3 energy=-437.616394549 pbc="T T T"
W      -0.00000000      -0.00000000       0.11761447       74      -0.00000000       0.00000000       0.01885203 
W      -0.00000000       2.24849580       1.52713743       74       0.00000000       0.00000000       0.05002308 
W       2.24849580       2.24849580       0.11761447       74      -0.00000000      -0.00000000       0.01885203 
W       2.24849580       0.00000000       1.52713743       74      -0.00000000       0.00000000       0.05002308 
W      -0.00000000       0.00000000       3.16335468       74       0.00000000      -0.00000000       0.05033012 
W      -0.00000000       2.24849580       4.74343990       74       0.00000000      -0.00000000       0.07220238 
W       2.24849580       2.24849580       3.16335468       74      -0.00000000       0.00000000       0.05033012 
W       2.24849580      -0.00000000       4.74343990       74       0.00000000       0.00000000       0.07220238 
W      -0.00000000       0.00000000       6.35235391       74      -0.00000000      -0.00000000      -0.07790006 
W      -0.00000000       2.24849580       7.94471554       74       0.00000000      -0.00000000      -0.05928072 
W       2.24849580       2.24849580       6.35235391       74      -0.00000000       0.00000000      -0.07790006 
W       2.24849580      -0.00000000       7.94471554       74      -0.00000000       0.00000000      -0.05928072 
W      -0.00000000       0.00000000       9.53878816       74      -0.00000000       0.00000000      -0.03916213 
W      -0.00000000       2.24849580      11.12907190       74       0.00000000      -0.00000000      -0.01645271 
W       2.24849580       2.24849580       9.53878816       74      -0.00000000      -0.00000000      -0.03916213 
W       2.24849580       0.00000000      11.12907190       74      -0.00000000       0.00000000      -0.01645271 
W      -0.00000000       0.00000000      12.71939140       74      -0.00000000       0.00000000      -0.00427386 
W      -0.00000000       2.24849580      14.30931778       74      -0.00000000      -0.00000000      -0.00137154 
W       2.24849580       2.24849580      12.71939140       74      -0.00000000      -0.00000000      -0.00427386 
W       2.24849580      -0.00000000      14.30931778       74       0.00000000       0.00000000      -0.00137154 
W      -0.00000000       0.00000000      15.89928821       74       0.00000000      -0.00000000       0.00137154 
W      -0.00000000       2.24849580      17.48921459       74       0.00000000      -0.00000000       0.00427386 
W       2.24849580       2.24849580      15.89928821       74       0.00000000       0.00000000       0.00137154 
W       2.24849580       0.00000000      17.48921459       74      -0.00000000       0.00000000       0.00427386 
W      -0.00000000       0.00000000      19.07953409       74       0.00000000       0.00000000       0.01645271 
W      -0.00000000       2.24849580      20.66981783       74       0.00000000       0.00000000       0.03916213 
W       2.24849580       2.24849580      19.07953409       74       0.00000000      -0.00000000       0.01645271 
W       2.24849580       0.00000000      20.66981783       74       0.00000000      -0.00000000       0.03916213 
W      -0.00000000       0.00000000      22.26389045       74      -0.00000000       0.00000000       0.05928072 
W      -0.00000000       2.24849580      23.85625208       74       0.00000000      -0.00000000       0.07790006 
W       2.24849580       2.24849580      22.26389045       74       0.00000000      -0.00000000       0.05928072 
W       2.24849580      -0.00000000      23.85625208       74      -0.00000000       0.00000000       0.07790006 
W      -0.00000000      -0.00000000      25.46516609       74      -0.00000000       0.00000000      -0.07220238 
W      -0.00000000       2.24849580      27.04525131       74      -0.00000000       0.00000000      -0.05033012 
W       2.24849580       2.24849580      25.46516609       74       0.00000000       0.00000000      -0.07220238 
W       2.24849580       0.00000000      27.04525131       74      -0.00000000       0.00000000      -0.05033012 
W      -0.00000000       0.00000000      28.68146856       74       0.00000000      -0.00000000      -0.05002308 
W      -0.00000000       2.24849580      30.09099152       74      -0.00000000       0.00000000      -0.01885203 
W       2.24849580       2.24849580      28.68146856       74       0.00000000       0.00000000      -0.05002308 
W       2.24849580      -0.00000000      30.09099152       74       0.00000000      -0.00000000      -0.01885203 
40
Lattice="4.496991609846928 2.8749527365604873e-18 -3.562435211413283e-18 2.8749527365604873e-18 4.49699160984693 -1.0935937366251278e-18 -2.519022095528065e-17 -7.732875470307629e-18 41.798532622617714" Properties=species:S:1:pos:R:3:Z:I:1:forces:R:3 energy=-437.619144692 pbc="T T T"
W      -0.00000000      -0.00000000       0.12723194       74       0.00000000      -0.00000000      -0.04796497 
W      -0.00000000       2.24849580       1.53197522       74      -0.00000000      -0.00000000       0.05400221 
W       2.24849580       2.24849580       0.12723194       74      -0.00000000       0.00000000      -0.04796497 
W       2.24849580       0.00000000       1.53197522       74       0.00000000      -0.00000000       0.05400221 
W      -0.00000000       0.00000000       3.16367243       74       0.00000000      -0.00000000       0.06487135 