2
Lattice="2.9453878858916887 3.902268587734478e-18 5.5347268954055956e-33 -1.4726939429458437 2.5507807331811443 1.1460730561944998e-32 8.606609553639861e-33 2.5559131245887173e-32 4.773846236000585" Properties=species:S:1:pos:R:3:Z:I:1:forces:R:3 stress="7.395000212135349e-07 -4.235164736271502e-22 5.698964912316904e-39 -4.235164736271502e-22 7.395000212135342e-07 1.0797129206968152e-32 5.698964912316904e-39 1.0797129206968152e-32 -2.0094653369529616e-06" energy=-12.1399473374 Minim_Constant_Volume=T Minim_Hydrostatic_Strain=F pbc="T T T"
Ti      -0.00000000       0.00000000      -0.00000000       22       0.00000000      -0.00000000      -0.00000000 
Ti       0.00000000       1.70052049       2.38692312       22       0.00000000      -0.00000000      -0.00000000 
2
Lattice="2.9034091311608528 -2.1392810503987175e-17 4.2041025490858374e-33 -1.4517045655804257 2.5144260651650043 1.4548758940591625e-32 6.297742036911729e-33 2.964132452988051e-32 4.789568716408149" Properties=species:S:1:pos:R:3:Z:I:1:forces:R:3 stress="-0.011159924907076643 8.673617379884035e-19 -4.7595851139911466e-33 8.673617379884035e-19 -0.01115992490707663 -3.8861101286028506e-35 -4.7595851139911466e-33 -3.8861101286028506e-35 -0.01129724555253695" energy=-12.1356625045 Minim_Constant_Volume=T Minim_Hydrostatic_Strain=F pbc="T T T"
Ti      -0.00000000       0.00000000      -0.00000000       22       0.00000000      -0.00000000       0.00000000 
Ti       0.00000000       1.67628404       2.39478436       22      -0.00000000       0.00000000      -0.00000000 
2
Lattice="2.870929559224286 -4.771191841665047e-17 -7.718449390824595e-33 -1.4354647796121422 2.4862979307638926 2.5094105222755715e-33 -1.341709296345187e-32 -4.871075312215267e-33 4.773346990964822" Properties=species:S:1:pos:R:3:Z:I:1:forces:R:3 stress="-0.03950616259696214 1.0408340855860843e-17 -4.324689160905413e-33 1.0408340855860843e-17 -0.03950616259696212 1.1622535672689681e-32 -4.324689160905413e-33 1.1622535672689681e-32 -0.039513433306937004" energy=-12.1153472457 Minim_Constant_Volume=T Minim_Hydrostatic_Strain=F pbc="T T T"
Ti      -0.00000000       0.00000000      -0.00000000       22      -0.00000000      -0.00000000       0.00000000 
Ti       0.00000000       1.65753195       2.38667350       22       0.00000000       0.00000000      -0.00000000 
2
Lattice="2.8428143026112918 -3.058089764511884e-17 -6.0320455355061806e-33 -1.4214071513056452 2.461949404303121 -1.1085157948005364e-32 -1.0570907416412764e-32 -2.932222037533676e-32 4.740203343968048" Properties=species:S:1:pos:R:3:Z:I:1:forces:R:3 stress="-0.0724893860408697 4.85722573273506e-17 4.1721754323062144e-33 4.85722573273506e-17 -0.0724893860408697 1.2091176719488982e-32 4.1721754323062144e-33 1.2091176719488982e-32 -0.07266704396553175" energy=-12.0641955819 Minim_Constant_Volume=T Minim_Hydrostatic_Strain=F pbc="T T T"
Ti      -0.00000000      -0.00000000      -0.00000000       22      -0.00000000      -0.00000000       0.00000000 
Ti       0.00000000       1.64129960       2.37010167       22       0.00000000       0.00000000      -0.00000000 
2
Lattice="2.8187402981887466 1.2514722011038861e-16 -1.5915228009073465e-32 -1.4093701490943724 2.4411007049023783 -4.955500737748448e-32 -2.70648844493905e-32 -1.1293828780226596e-31 4.69121444357019" Properties=species:S:1:pos:R:3:Z:I:1:forces:R:3 stress="-0.10113057876708874 6.938893903907228e-18 1.3132914306618757e-34 6.938893903907228e-18 -0.1011305787670887 -1.1498030822961107e-33 1.3132914306618757e-34 -1.1498030822961107e-33 -0.10104605055627358" energy=-11.98545338 Minim_Constant_Volume=T Minim_Hydrostatic_Strain=F pbc="T T T"
Ti      -0.00000000       0.00000000       0.00000000       22       0.00000000      -0.00000000      -0.00000000 
Ti       0.00000000       1.62740047       2.34560722       22      -0.00000000       0.00000000       0.00000000 
2
Lattice="2.787667198170813 1.7248434857990534e-16 -1.6448859268276865e-32 -1.3938335990854058 2.4141906109125135 -1.164049905777312e-31 -2.7813317468958913e-32 -2.4133787998130348e-31 4.663112458273353" Properties=species:S:1:pos:R:3:Z:I:1:forces:R:3 stress="-0.11605402471233812 1.3877787807814457e-17 -1.0020310120107188e-32 1.3877787807814457e-17 -0.1160540247123381 2.1445432935126698e-32 -1.0020310120107188e-32 2.1445432935126698e-32 -0.1160674198779512" energy=-11.8868182225 Minim_Constant_Volume=T Minim_Hydrostatic_Strain=F pbc="T T T"
Ti      -0.00000000      -0.00000000       0.00000000       22       0.00000000       0.00000000       0.00000000 
Ti       0.00000000       1.60946041       2.33155623       22       0.00000000      -0.00000000       0.00000000 
2
Lattice="2.9834212813283525 1.3742224228304432e-17 7.471070020778932e-33 -1.4917106406641754 2.583718619821474 1.2103030310417839e-32 1.186539584517243e-32 2.893066730888264e-32 4.7689233660716495" Properties=species:S:1:pos:R:3:Z:I:1:forces:R:3 stress="0.0127076460559193 -6.938893903907228e-18 3.0434818014338392e-33 -6.938893903907228e-18 0.012707646055919296 1.4779905029522742e-33 3.0434818014338392e-33 1.4779905029522742e-33 0.012725969245994036" energy=-12.1351015 Minim_Constant_Volume=T Minim_Hydrostatic_Strain=F pbc="T T T"
Ti      -0.00000000       0.00000000      -0.00000000       22       0.00000000      -0.00000000      -0.00000000 
Ti       0.00000000       1.72247908       2.38446168       22      -0.00000000       0.00000000       0.00000000 
2
Lattice="3.0137840050367313 6.598189608452128e-17 1.2039550730776524e-32 -1.5068920025183647 2.610013509881018 4.151472071259687e-32 1.9242120553151034e-32 8.761401395109723e-32 4.787544883527872" Properties=species:S:1:pos:R:3:Z:I:1:forces:R:3 stress="0.031136188453093985 -1.734723475976807e-17 -4.2951558894097964e-33 -1.734723475976807e-17 0.03113618845309398 -2.293512418568366e-33 -4.2951558894097964e-33 -2.293512418568366e-33 0.031106752816005848" energy=-12.1146952611 Minim_Constant_Volume=T Minim_Hydrostatic_Strain=F pbc="T T T"
Ti      -0.00000000       0.00000000      -0.00000000       22      -0.00000000      -0.00000000      -0.00000000 
Ti       0.00000000       1.74000901       2.39377244       22       0.00000000       0.00000000       0.00000000 
2
Lattice="3.048606617490291 2.0225188204357486e-16 2.405139787130104e-32 -1.5243033087451443 2.640170776891941 2.6773568284387346e-32 3.853578374559465e-32 7.255736172204144e-32 4.790068623729733" Properties=species:S:1:pos:R:3:Z:I:1:forces:R:3 stress="0.04221388468409742 -2.7755575615628914e-17 -7.12670429716603e-34 -2.7755575615628914e-17 0.042213884684097445 -5.273367972399232e-33 -7.12670429716603e-34 -5.273367972399232e-33 0.04228214358362311" energy=-12.081754286 Minim_Constant_Volume=T Minim_Hydrostatic_Strain=F pbc="T T T"
Ti      -0.00000000       0.00000000      -0.00000000       22       0.00000000      -0.00000000       0.00000000 
Ti       0.00000000       1.76011385       2.39503431       22      -0.00000000      -0.00000000      -0.00000000 
2
Lattice="3.0822888618921596 2.48314830426559e-16 3.224420069665929e-32 -1.5411444309460787 2.6693404562004353 4.06577450101091e-32 5.179574141214902e-32 1.0590931923027789e-31 4.794960844598574" Properties=species:S:1:pos:R:3:Z:I:1:forces:R:3 stress="0.052263119940603495 -1.734723475976807e-17 -2.6546714855229255e-33 -1.734723475976807e-17 0.05226311994060352 -6.761528650682809e-33 -2.6546714855229255e-33 -6.761528650682809e-33 0.05226735012584915" energy=-12.0393202965 Minim_Constant_Volume=T Minim_Hydrostatic_Strain=F pbc="T T T"
Ti      -0.00000000       0.00000000      -0.00000000       22       0.00000000      -0.00000000      -0.00000000 
Ti       0.00000000       1.77956030       2.39748042       22      -0.00000000       0.00000000      -0.00000000 
2
Lattice="3.1136799434961833 3.6853931928257123e-16 4.373253870889645e-32 -1.5568399717480905 2.69652593032179 6.001684490260159e-32 7.008362208809875e-32 1.518545500656796e-31 4.805614678810167" Properties=species:S:1:pos:R:3:Z:I:1:forces:R:3 stress="0.061462245119748314 -3.469446951953614e-17 -3.733134634102944e-33 -3.469446951953614e-17 0.061462245119748335 -1.7114889130435188e-32 -3.733134634102944e-33 -1.7114889130435188e-32 0.061488301896349594" energy=-11.9882398774 Minim_Constant_Volume=T Minim_Hydrostatic_Strain=F pbc="T T T"
Ti      -0.00000000       0.00000000      -0.00000000       22       0.00000000      -0.00000000      -0.00000000 
Ti       0.00000000       1.79768395       2.40280734       22      -0.00000000       0.00000000      -0.00000000 
2
Lattice="3.1417593059048987 4.2379455342742053e-16 6.0193185079884e-32 -1.5708796529524482 2.7208433714898077 -4.1508675944015114e-32 9.58478078428252e-32 -1.3632292513034498e-32 4.825050980171596" Properties=species:S:1:pos:R:3:Z:I:1:forces:R:3 stress="0.0695184291806066 -5.551115123125783e-17 -2.7292885509407336e-32 -5.551115123125783e-17 0.0695184291806066 -2.0389125287336925e-32 -2.7292885509407336e-32 -2.0389125287336925e-32 0.06960445167278555" energy=-11.929365247 Minim_Constant_Volume=T Minim_Hydrostatic_Strain=F pbc="T T T"
Ti      -0.00000000       0.00000000       0.00000000       22      -0.00000000       0.00000000       0.00000000 
Ti       0.00000000       1.81389558       2.41252549       22       0.00000000      -0.00000000      -0.00000000 
