1
Lattice="2.8324440264966526 -6.943303075895372e-18 0.0 1.4162220132483263 2.4529684817435844 0.0 0.0 0.0 2.5991001968459555" Properties=species:S:1:pos:R:3:Z:I:1:forces:R:3 stress="1.8072378673146543e-05 5.866841872812473e-21 0.0 5.866841872812473e-21 1.8072378673146543e-05 0.0 0.0 0.0 1.1603481820682448e-06" energy=-3.95817620734 Minim_Constant_Volume=T Minim_Hydrostatic_Strain=F pbc="T T T"
Si       0.00000000       0.00000000       0.00000000       14       0.00000000       0.00000000       0.00000000 
