4
Lattice="3.699134297020701 -9.591169060650006e-26 3.569604093132661e-51 -9.591169060650002e-26 3.6991342970207026 7.539440131400663e-25 6.651008731577956e-51 7.539440131400665e-25 3.6991342970207013" Properties=species:S:1:pos:R:3:Z:I:1:forces:R:3 stress="-0.00038863131910992405 2.1724411053442088e-26 -4.3624828535061815e-51 2.1724411053442088e-26 -0.00038863131910992356 -2.5187722960512556e-27 -4.3624828535061815e-51 -2.5187722960512556e-27 -0.00038863131910992394" energy=-650.181924591 Minim_Constant_Volume=T Minim_Hydrostatic_Strain=F pbc="T T T"
Si       0.00000000       0.00000000       0.00000000       14       0.00000000      -0.00000000      -0.00000000 
Si       1.84956715       1.84956715       0.00000000       14       0.00000000       0.00000000       0.00000000 
Si       1.84956715       0.00000000       1.84956715       14      -0.00000000       0.00000000      -0.00000000 
Si      -0.00000000       1.84956715       1.84956715       14      -0.00000000      -0.00000000      -0.00000000 
4
Lattice="3.668047665139043 -9.51056719060076e-26 3.5396060018236087e-51 -9.510567190600756e-26 3.668047665139045 7.476080496107774e-25 6.595115259354799e-51 7.476080496107776e-25 3.6680476651390435" Properties=species:S:1:pos:R:3:Z:I:1:forces:R:3 stress="-0.030427241469285354 1.8860675920838573e-26 -3.379182776204202e-51 1.8860675920838573e-26 -0.030427241469285334 -1.7931524093227754e-26 -3.379182776204202e-51 -1.7931524093227754e-26 -0.030427241469285354" energy=-650.163764472 Minim_Constant_Volume=T Minim_Hydrostatic_Strain=F pbc="T T T"
Si       0.00000000       0.00000000       0.00000000       14      -0.00000000       0.00000000      -0.00000000 
Si       1.83402383       1.83402383       0.00000000       14       0.00000000      -0.00000000      -0.00000000 
Si       1.83402383       0.00000000       1.83402383       14      -0.00000000       0.00000000      -0.00000000 
Si      -0.00000000       1.83402383       1.83402383       14       0.00000000       0.00000000      -0.00000000 
4
Lattice="3.636424991006468 -9.42857546242813e-26 3.5090906385099934e-51 -9.428575462428126e-26 3.6364249910064697 7.411628319118859e-25 6.538257988197869e-51 7.411628319118861e-25 3.6364249910064683" Properties=species:S:1:pos:R:3:Z:I:1:forces:R:3 stress="-0.07809985027304034 3.966691535917375e-43 7.73379432318509e-58 3.966691535917375e-43 -0.07809985027304028 -2.982779642542223e-32 7.73379432318509e-58 -2.982779642542223e-32 -0.07809985027304034" energy=-650.097885416 Minim_Constant_Volume=T Minim_Hydrostatic_Strain=F pbc="T T T"
Si       0.00000000       0.00000000       0.00000000       14      -0.00000000       0.00000000       0.00000000 
Si       1.81821250       1.81821250       0.00000000       14       0.00000000      -0.00000000      -0.00000000 
Si       1.81821250       0.00000000       1.81821250       14      -0.00000000       0.00000000      -0.00000000 
Si      -0.00000000       1.81821250       1.81821250       14       0.00000000      -0.00000000       0.00000000 
4
Lattice="3.6042425510900755 -9.345132365411909e-26 3.4780351103705924e-51 -9.345132365411904e-26 3.6042425510900773 7.3460352479974725e-25 6.480394263417776e-51 7.346035247997474e-25 3.604242551090076" Properties=species:S:1:pos:R:3:Z:I:1:forces:R:3 stress="-0.15386393026519918 5.306291225298215e-27 9.822254725022863e-52 5.306291225298215e-27 -0.15386393026519907 -7.959436837947321e-26 9.822254725022863e-52 -7.959436837947321e-26 -0.15386393026519918" energy=-649.954400086 Minim_Constant_Volume=T Minim_Hydrostatic_Strain=F pbc="T T T"
Si       0.00000000       0.00000000       0.00000000       14       0.00000000       0.00000000       0.00000000 
Si       1.80212128       1.80212128       0.00000000       14       0.00000000       0.00000000       0.00000000 
Si       1.80212128       0.00000000       1.80212128       14       0.00000000       0.00000000       0.00000000 
Si      -0.00000000       1.80212128       1.80212128       14       0.00000000       0.00000000       0.00000000 
4
Lattice="3.571474896004095 -9.26017191401553e-26 3.44641485916439e-51 -9.260171914015526e-26 3.571474896004097 7.279249412737014e-25 6.421478327257871e-51 7.279249412737016e-25 3.5714748960040956" Properties=species:S:1:pos:R:3:Z:I:1:forces:R:3 stress="-0.26489812302799576 -4.186211721800106e-26 7.551354315048014e-51 -4.186211721800106e-26 -0.2648981230279953 3.782874533007477e-26 7.551354315048014e-51 3.782874533007477e-26 -0.2648981230279957" energy=-649.693589091 Minim_Constant_Volume=T Minim_Hydrostatic_Strain=F pbc="T T T"
Si       0.00000000       0.00000000       0.00000000       14       0.00000000       0.00000000      -0.00000000 
Si       1.78573745       1.78573745       0.00000000       14      -0.00000000      -0.00000000       0.00000000 
Si       1.78573745       0.00000000       1.78573745       14       0.00000000       0.00000000      -0.00000000 
Si      -0.00000000       1.78573745       1.78573745       14      -0.00000000      -0.00000000       0.00000000 
4
Lattice="3.5380946730168596 -9.17362318767958e-26 3.4142034899527115e-51 -9.173623187679577e-26 3.5380946730168614 7.211215064000944e-25 6.361460999763454e-51 7.211215064000946e-25 3.53809467301686" Properties=species:S:1:pos:R:3:Z:I:1:forces:R:3 stress="-0.4205014423946392 -1.444386049297724e-42 -4.7506093536612625e-51 -1.444386049297724e-42 -0.42050144239463866 1.8322210651018132e-25 -4.7506093536612625e-51 1.8322210651018132e-25 -0.42050144239463905" energy=-649.265680026 Minim_Constant_Volume=T Minim_Hydrostatic_Strain=F pbc="T T T"
Si       0.00000000       0.00000000       0.00000000       14       0.00000000       0.00000000       0.00000000 
Si       1.76904734       1.76904734       0.00000000       14       0.00000000       0.00000000       0.00000000 
Si       1.76904734       0.00000000       1.76904734       14       0.00000000       0.00000000       0.00000000 
Si      -0.00000000       1.76904734       1.76904734       14       0.00000000       0.00000000       0.00000000 
4
Lattice="3.7297070412796525 -9.670438515417244e-26 3.599106291291011e-51 -9.670438515417239e-26 3.7297070412796542 7.601752379749861e-25 6.705978238680835e-51 7.601752379749863e-25 3.729707041279653" Properties=species:S:1:pos:R:3:Z:I:1:forces:R:3 stress="0.02057561587038039 1.4366247040838409e-30 -2.9378782616914555e-55 1.4366247040838409e-30 0.020575615870380353 3.7805913266195427e-32 -2.9378782616914555e-55 3.7805913266195427e-32 0.02057561587038038" energy=-650.168885841 Minim_Constant_Volume=T Minim_Hydrostatic_Strain=F pbc="T T T"
Si       0.00000000       0.00000000       0.00000000       14       0.00000000       0.00000000       0.00000000 
Si       1.86485352       1.86485352       0.00000000       14       0.00000000       0.00000000       0.00000000 
Si       1.86485352       0.00000000       1.86485352       14       0.00000000       0.00000000       0.00000000 
Si      -0.00000000       1.86485352       1.86485352       14       0.00000000       0.00000000       0.00000000 
4
Lattice="3.7597866228607146 -9.748429290840007e-26 3.628132595531426e-51 -9.748429290840003e-26 3.7597866228607164 7.663059481979335e-25 6.760061043919615e-51 7.663059481979337e-25 3.759786622860715" Properties=species:S:1:pos:R:3:Z:I:1:forces:R:3 stress="0.03235937605152699 1.860170626188014e-32 -7.44068250486154e-32 1.860170626188014e-32 0.03235937605152697 -4.743435096864965e-31 -7.44068250486154e-32 -4.743435096864965e-31 0.032359376051527" energy=-650.134174709 Minim_Constant_Volume=T Minim_Hydrostatic_Strain=F pbc="T T T"
Si       0.00000000       0.00000000       0.00000000       14      -0.00000000      -0.00000000      -0.00000000 
Si       1.87989331       1.87989331       0.00000000       14       0.00000000      -0.00000000       0.00000000 
Si       1.87989331       0.00000000       1.87989331       14      -0.00000000      -0.00000000      -0.00000000 
Si      -0.00000000       1.87989331       1.87989331       14       0.00000000       0.00000000       0.00000000 
4
Lattice="3.789392460893655 -9.825191737119628e-26 3.656701744996511e-51 -9.825191737119624e-26 3.789392460893657 7.723401017448613e-25 6.81329206270727e-51 7.723401017448615e-25 3.7893924608936556" Properties=species:S:1:pos:R:3:Z:I:1:forces:R:3 stress="0.037708268545258924 1.6801496727657537e-26 -2.934333967814905e-51 1.6801496727657537e-26 0.03770826854525889 -1.890168381861473e-26 -2.934333967814905e-51 -1.890168381861473e-26 0.037708268545258924" energy=-650.088589175 Minim_Constant_Volume=T Minim_Hydrostatic_Strain=F pbc="T T T"
Si       0.00000000       0.00000000       0.00000000       14       0.00000000       0.00000000       0.00000000 
Si       1.89469623       1.89469623       0.00000000       14      -0.00000000      -0.00000000       0.00000000 
Si       1.89469623       0.00000000       1.89469623       14       0.00000000       0.00000000      -0.00000000 
Si      -0.00000000       1.89469623       1.89469623       14      -0.00000000      -0.00000000       0.00000000 
4
Lattice="3.818542779217137 -9.900773105289325e-26 3.684831325392504e-51 -9.900773105289321e-26 3.8185427792171387 7.782814129318646e-25 6.865704061334598e-51 7.782814129318647e-25 3.8185427792171374" Properties=species:S:1:pos:R:3:Z:I:1:forces:R:3 stress="0.039672605131016295 1.8466467021136154e-29 -3.763767718746362e-54 1.8466467021136154e-29 0.03967260513101629 -8.889781919484804e-42 -3.763767718746362e-54 -8.889781919484804e-42 0.039672605131016295" energy=-650.039966042 Minim_Constant_Volume=T Minim_Hydrostatic_Strain=F pbc="T T T"
Si       0.00000000       0.00000000       0.00000000       14      -0.00000000       0.00000000       0.00000000 
Si       1.90927139       1.90927139       0.00000000       14      -0.00000000      -0.00000000       0.00000000 
Si       1.90927139       0.00000000       1.90927139       14       0.00000000       0.00000000      -0.00000000 
Si      -0.00000000       1.90927139       1.90927139       14       0.00000000      -0.00000000      -0.00000000 
4
Lattice="3.8472547052646187 -9.975217803607002e-26 3.712537864412555e-51 -9.975217803606998e-26 3.8472547052646204 7.841333726097421e-25 6.917327834766135e-51 7.841333726097423e-25 3.847254705264619" Properties=species:S:1:pos:R:3:Z:I:1:forces:R:3 stress="0.03853232444442293 -1.819186634363844e-29 4.060301689236031e-55 -1.819186634363844e-29 0.03853232444442294 1.2734306440545262e-28 4.060301689236031e-55 1.2734306440545262e-28 0.038532324444422915" energy=-649.990185723 Minim_Constant_Volume=T Minim_Hydrostatic_Strain=F pbc="T T T"
Si       0.00000000       0.00000000       0.00000000       14       0.00000000      -0.00000000       0.00000000 
Si       1.92362735       1.92362735       0.00000000       14      -0.00000000       0.00000000       0.00000000 
Si       1.92362735       0.00000000       1.92362735       14      -0.00000000      -0.00000000       0.00000000 
Si      -0.00000000       1.92362735       1.92362735       14       0.00000000       0.00000000       0.00000000 
4
Lattice="3.8755443587675336 -1.0048567627546133e-25 3.739836917333841e-51 -1.0048567627546128e-25 3.8755443587675353 7.898992662431547e-25 6.968192366127633e-51 7.8989926624315485e-25 3.875544358767534" Properties=species:S:1:pos:R:3:Z:I:1:forces:R:3 stress="0.03627438822996852 -1.750708154667759e-32 3.11430313312091e-57 -1.750708154667759e-32 0.03627438822996848 1.7507081548580002e-32 3.11430313312091e-57 1.7507081548580002e-32 0.036274388229968514" energy=-649.942829263 Minim_Constant_Volume=T Minim_Hydrostatic_Strain=F pbc="T T T"
Si       0.00000000       0.00000000       0.00000000       14      -0.00000000      -0.00000000      -0.00000000 
Si       1.93777218       1.93777218       0.00000000       14       0.00000000       0.00000000       0.00000000 
Si       1.93777218       0.00000000       1.93777218       14      -0.00000000      -0.00000000      -0.00000000 
Si      -0.00000000       1.93777218       1.93777218       14      -0.00000000       0.00000000       0.00000000 
