2
Lattice="3.2770539188110757 4.456008896134676e-35 6.563144124994332e-35 4.456008896134676e-35 3.2770539188110757 4.866758539990796e-19 6.563144124994332e-35 4.866758539990796e-19 3.2770539188110757" Properties=species:S:1:pos:R:3:Z:I:1:forces:R:3 stress="0.00028690903023232913 -3.586768170724519e-35 1.0431806344944292e-50 -3.586768170724519e-35 0.00028690903023232886 -1.8195687116835492e-19 1.0431806344944292e-50 -1.8195687116835492e-19 0.00028690903023232897" energy=-12.0070974865 Minim_Constant_Volume=T Minim_Hydrostatic_Strain=F pbc="T T T"
Ti      -0.00000000       0.00000000       0.00000000       22       0.00000000       0.00000000       0.00000000 
Ti       1.63852696       1.63852696       1.63852696       22       0.00000000       0.00000000       0.00000000 
2
Lattice="3.2495143485628497 4.418561672786473e-35 6.507989045719625e-35 4.418561672786473e-35 3.2495143485628497 4.825859475766105e-19 6.507989045719625e-35 4.825859475766105e-19 3.2495143485628497" Properties=species:S:1:pos:R:3:Z:I:1:forces:R:3 stress="-0.016460891843277835 3.112807569854157e-33 2.9182570967382726e-33 3.112807569854157e-33 -0.01646089184327782 3.2643065070206605e-18 2.9182570967382726e-33 3.2643065070206605e-18 -0.01646089184327783" energy=-11.9999490288 Minim_Constant_Volume=T Minim_Hydrostatic_Strain=F pbc="T T T"
Ti      -0.00000000       0.00000000       0.00000000       22      -0.00000000       0.00000000      -0.00000000 
Ti       1.62475717       1.62475717       1.62475717       22      -0.00000000      -0.00000000       0.00000000 
2
Lattice="3.221499899811177 4.3804687283459827e-35 6.451882899987912e-35 4.3804687283459827e-35 3.221499899811177 4.784255168640513e-19 6.451882899987912e-35 4.784255168640513e-19 3.221499899811177" Properties=species:S:1:pos:R:3:Z:I:1:forces:R:3 stress="-0.0346830209870938 -1.2371802608142904e-35 -1.546475326017863e-35 -1.2371802608142904e-35 -0.0346830209870938 -3.272792209488175e-18 -1.546475326017863e-35 -3.272792209488175e-18 -0.034683020987093825" energy=-11.9776059167 Minim_Constant_Volume=T Minim_Hydrostatic_Strain=F pbc="T T T"
Ti      -0.00000000       0.00000000       0.00000000       22      -0.00000000       0.00000000       0.00000000 
Ti       1.61074995       1.61074995       1.61074995       22       0.00000000      -0.00000000       0.00000000 
2
Lattice="3.1929895559369745 4.341701485242032e-35 6.394783596608911e-35 4.341701485242032e-35 3.1929895559369745 4.74191440679605e-19 6.394783596608911e-35 4.74191440679605e-19 3.1929895559369745" Properties=species:S:1:pos:R:3:Z:I:1:forces:R:3 stress="-0.05520621122939842 3.1255440549330617e-49 -1.6119968924083285e-33 3.1255440549330617e-49 -0.05520621122939843 8.303012279007117e-18 -1.6119968924083285e-33 8.303012279007117e-18 -0.05520621122939843" energy=-11.9382449456 Minim_Constant_Volume=T Minim_Hydrostatic_Strain=F pbc="T T T"
Ti      -0.00000000       0.00000000       0.00000000       22       0.00000000      -0.00000000      -0.00000000 
Ti       1.59649478       1.59649478       1.59649478       22      -0.00000000       0.00000000       0.00000000 
2
Lattice="3.1639607713923725 4.30222928692628e-35 6.336645982318832e-35 4.30222928692628e-35 3.1639607713923725 4.698803707799907e-19 6.336645982318832e-35 4.698803707799907e-19 3.1639607713923725" Properties=species:S:1:pos:R:3:Z:I:1:forces:R:3 stress="-0.07844749439283055 -1.539105152833724e-34 3.20646906840359e-35 -1.539105152833724e-34 -0.07844749439283051 -8.351128875583876e-19 3.20646906840359e-35 -8.351128875583876e-19 -0.07844749439283047" energy=-11.8796494449 Minim_Constant_Volume=T Minim_Hydrostatic_Strain=F pbc="T T T"
Ti      -0.00000000       0.00000000       0.00000000       22       0.00000000       0.00000000       0.00000000 
Ti       1.58198039       1.58198039       1.58198039       22       0.00000000       0.00000000       0.00000000 
2
Lattice="3.1343893144600816 4.262019184063597e-35 6.277421526865532e-35 4.262019184063597e-35 3.1343893144600816 4.654887085086109e-19 6.277421526865532e-35 4.654887085086109e-19 3.1343893144600816" Properties=species:S:1:pos:R:3:Z:I:1:forces:R:3 stress="-0.10421611364433384 9.932462697442578e-34 4.18208955681793e-34 9.932462697442578e-34 -0.1042161136443338 1.2511525863646982e-17 4.18208955681793e-34 1.2511525863646982e-17 -0.1042161136443338" energy=-11.7995026216 Minim_Constant_Volume=T Minim_Hydrostatic_Strain=F pbc="T T T"
Ti      -0.00000000       0.00000000       0.00000000       22       0.00000000      -0.00000000      -0.00000000 
Ti       1.56719466       1.56719466       1.56719466       22      -0.00000000       0.00000000       0.00000000 
2
Lattice="3.3041382372861574 4.492837086045721e-35 6.617387445392215e-35 4.492837086045721e-35 3.3041382372861574 4.906981509006288e-19 6.617387445392215e-35 4.906981509006288e-19 3.3041382372861574" Properties=species:S:1:pos:R:3:Z:I:1:forces:R:3 stress="0.01574153250984272 -4.6742618976174086e-52 3.51442499213111e-36 -4.6742618976174086e-52 0.015741532509842705 -3.737728493175529e-18 3.51442499213111e-36 -3.737728493175529e-18 0.015741532509842712" energy=-11.9997882705 Minim_Constant_Volume=T Minim_Hydrostatic_Strain=F pbc="T T T"
Ti      -0.00000000       0.00000000       0.00000000       22       0.00000000       0.00000000       0.00000000 
Ti       1.65206912       1.65206912       1.65206912       22       0.00000000       0.00000000       0.00000000 
2
Lattice="3.330785664165416 4.5290712079658616e-35 6.670755777895049e-35 4.5290712079658616e-35 3.330785664165416 4.946555649544221e-19 6.670755777895049e-35 4.946555649544221e-19 3.330785664165416" Properties=species:S:1:pos:R:3:Z:I:1:forces:R:3 stress="0.028738420174223428 -2.314652762834212e-35 9.258611051336827e-35 -2.314652762834212e-35 0.02873842017422343 -1.0627223315469793e-17 9.258611051336827e-35 -1.0627223315469793e-17 0.028738420174223425" energy=-11.9801054735 Minim_Constant_Volume=T Minim_Hydrostatic_Strain=F pbc="T T T"
Ti      -0.00000000       0.00000000       0.00000000       22       0.00000000       0.00000000       0.00000000 
Ti       1.66539283       1.66539283       1.66539283       22       0.00000000       0.00000000      -0.00000000 
2
Lattice="3.357013402807853 4.5647346543453446e-35 6.723283576658106e-35 4.5647346543453446e-35 3.357013402807853 4.985506510343312e-19 6.723283576658106e-35 4.985506510343312e-19 3.357013402807853" Properties=species:S:1:pos:R:3:Z:I:1:forces:R:3 stress="0.040541702143251236 -5.6965653066254136e-36 -1.1393130613250823e-35 -5.6965653066254136e-36 0.04054170214325121 7.555014251289137e-18 -1.1393130613250823e-35 7.555014251289137e-18 0.0405417021432512" energy=-11.9495579918 Minim_Constant_Volume=T Minim_Hydrostatic_Strain=F pbc="T T T"
Ti      -0.00000000       0.00000000       0.00000000       22       0.00000000       0.00000000       0.00000000 
Ti       1.67850670       1.67850670       1.67850670       22       0.00000000       0.00000000       0.00000000 
2
Lattice="3.382837597667038 4.599849377776503e-35 6.775003175105927e-35 4.599849377776503e-35 3.382837597667038 5.02385806755996e-19 6.775003175105927e-35 5.02385806755996e-19 3.382837597667038" Properties=species:S:1:pos:R:3:Z:I:1:forces:R:3 stress="0.051311152802734766 7.989938600381042e-37 7.521668370025268e-52 7.989938600381042e-37 0.05131115280273477 -1.7014439674094905e-18 7.521668370025268e-52 -1.7014439674094905e-18 0.05131115280273481" energy=-11.9090662511 Minim_Constant_Volume=T Minim_Hydrostatic_Strain=F pbc="T T T"
Ti      -0.00000000       0.00000000       0.00000000       22       0.00000000       0.00000000       0.00000000 
Ti       1.69141880       1.69141880       1.69141880       22       0.00000000       0.00000000       0.00000000 
2
Lattice="3.4082734218938833 4.634436010112556e-35 6.825944961379427e-35 4.634436010112556e-35 3.4082734218938833 5.061632854867279e-19 6.825944961379427e-35 5.061632854867279e-19 3.4082734218938833" Properties=species:S:1:pos:R:3:Z:I:1:forces:R:3 stress="0.06078478701155872 1.1053005109572655e-34 8.566078959918809e-35 1.1053005109572655e-34 0.0607847870115587 -9.287703204539695e-18 8.566078959918809e-35 -9.287703204539695e-18 0.0607847870115587" energy=-11.8596526798 Minim_Constant_Volume=T Minim_Hydrostatic_Strain=F pbc="T T T"
Ti      -0.00000000       0.00000000       0.00000000       22       0.00000000       0.00000000       0.00000000 
Ti       1.70413671       1.70413671       1.70413671       22       0.00000000       0.00000000       0.00000000 
2
Lattice="3.4333351559185714 4.668513969320224e-35 6.876137535716433e-35 4.668513969320224e-35 3.4333351559185714 5.098852080157256e-19 6.876137535716433e-35 5.098852080157256e-19 3.4333351559185714" Properties=species:S:1:pos:R:3:Z:I:1:forces:R:3 stress="0.06897975195165815 1.7427568890975805e-34 -2.6141353336463723e-34 1.7427568890975805e-34 0.06897975195165813 1.4548774536853117e-18 -2.6141353336463723e-34 1.4548774536853117e-18 0.06897975195165819" energy=-11.8024894204 Minim_Constant_Volume=T Minim_Hydrostatic_Strain=F pbc="T T T"
Ti      -0.00000000       0.00000000       0.00000000       22      -0.00000000       0.00000000      -0.00000000 
Ti       1.71666758       1.71666758       1.71666758       22       0.00000000       0.00000000      -0.00000000 
