2
Lattice="3.9210927133006273 -5.045660649626398e-17 -2.5948090305615344e-30 -1.960546356650313 3.3957659003123966 1.5832008305320092e-29 -2.5762037631667258e-30 2.311319569471568e-29 2.5517561985473396" Properties=species:S:1:pos:R:3:Z:I:1:forces:R:3 stress="-6.547067553650321e-05 8.577681967523804e-22 -6.727600494870253e-30 8.577681967523804e-22 -6.547067553650321e-05 -1.165199384376724e-29 -6.727600494870253e-30 -1.165199384376724e-29 7.40273854153491e-05" energy=-325.991687892 Minim_Constant_Volume=T Minim_Hydrostatic_Strain=F pbc="T T T"
Si       0.00000000      -0.00000000       0.00000000       14       0.00000000      -0.00000000      -0.00000000 
Si      -0.00000000       2.26384393       1.27587810       14      -0.00000000       0.00000000       0.00000000 
2
Lattice="3.876088387432597 -1.4948691019202546e-16 -1.1457507547357016e-28 -1.9380441937162978 3.356791010830489 -4.1295488959454845e-29 -7.542460576775482e-29 -6.212994965617598e-29 2.5459987118346974" Properties=species:S:1:pos:R:3:Z:I:1:forces:R:3 stress="-0.030681695093705427 7.85245750540793e-18 -9.834610868499507e-31 7.85245750540793e-18 -0.030681695093705382 6.657977327830642e-30 -9.834610868499507e-31 6.657977327830642e-30 -0.030634954754817777" energy=-325.978950479 Minim_Constant_Volume=T Minim_Hydrostatic_Strain=F pbc="T T T"
Si       0.00000000      -0.00000000       0.00000000       14      -0.00000000       0.00000000      -0.00000000 
Si      -0.00000000       2.23786067       1.27299936       14       0.00000000       0.00000000       0.00000000 
2
Lattice="3.8296565918499743 -1.7823473402203124e-16 -1.0548421179479646e-28 -1.9148282959249865 3.3165798963126116 -5.313590259269745e-29 -6.869102383299657e-29 -6.705898873517468e-29 2.5412204618782757" Properties=species:S:1:pos:R:3:Z:I:1:forces:R:3 stress="-0.06706228411392368 -1.0725891346328048e-17 -1.8445696471486516e-30 -1.0725891346328048e-17 -0.06706228411392359 -3.860813448193441e-29 -1.8445696471486516e-30 -3.860813448193441e-29 -0.06700424361695327" energy=-325.93798144 Minim_Constant_Volume=T Minim_Hydrostatic_Strain=F pbc="T T T"
Si       0.00000000       0.00000000      -0.00000000       14       0.00000000      -0.00000000       0.00000000 
Si      -0.00000000       2.21105326       1.27061023       14      -0.00000000       0.00000000      -0.00000000 
2
Lattice="3.7812186289027467 -3.0947475424191646e-16 -1.7044381221652092e-28 -1.890609314451373 3.274631389892743 -1.9568893489014478e-28 -1.1101239937311357e-28 -2.004229201490133e-28 2.538121208559587" Properties=species:S:1:pos:R:3:Z:I:1:forces:R:3 stress="-0.11010258228071393 2.3274142977248614e-17 -2.9590608787186553e-30 2.3274142977248614e-17 -0.11010258228071401 -3.0853253647220253e-29 -2.9590608787186553e-30 -3.0853253647220253e-29 -0.11002151575286473" energy=-325.863161738 Minim_Constant_Volume=T Minim_Hydrostatic_Strain=F pbc="T T T"
Si       0.00000000      -0.00000000      -0.00000000       14      -0.00000000       0.00000000       0.00000000 
Si      -0.00000000       2.18308759       1.26906060       14       0.00000000      -0.00000000      -0.00000000 
2
Lattice="3.729544401858555 -4.981384636526511e-16 -2.8937418485111052e-28 -1.8647722009292773 3.229880196551548 -4.974879443087863e-28 -1.8931500251648089e-28 -4.776726603109849e-28 2.538379120524643" Properties=species:S:1:pos:R:3:Z:I:1:forces:R:3 stress="-0.16064572010633968 6.36861722913602e-17 -2.8604007041972238e-30 6.36861722913602e-17 -0.16064572010633982 1.6559427713092152e-29 -2.8604007041972238e-30 1.6559427713092152e-29 -0.16054904838319084" energy=-325.748741729 Minim_Constant_Volume=T Minim_Hydrostatic_Strain=F pbc="T T T"
Si       0.00000000      -0.00000000      -0.00000000       14      -0.00000000       0.00000000      -0.00000000 
Si      -0.00000000       2.15325346       1.26918956       14       0.00000000      -0.00000000       0.00000000 
2
Lattice="3.6722829416819294 -1.334903656441766e-16 -2.7028357284469774e-28 -1.8361414708409642 3.1802903173807993 -8.713016721862795e-28 -1.728770579251755e-28 -7.552405708709694e-28 2.5453126340896013" Properties=species:S:1:pos:R:3:Z:I:1:forces:R:3 stress="-0.2199022840215843 1.1516679478562933e-16 4.087926178279632e-29 1.1516679478562933e-16 -0.21990228402158435 6.488942359920324e-30 4.087926178279632e-29 6.488942359920324e-30 -0.21980367308199414" energy=-325.587469961 Minim_Constant_Volume=T Minim_Hydrostatic_Strain=F pbc="T T T"
Si       0.00000000      -0.00000000      -0.00000000       14      -0.00000000       0.00000000      -0.00000000 
Si      -0.00000000       2.12019354       1.27265632       14      -0.00000000      -0.00000000       0.00000000 
2
Lattice="3.96434512003173 -2.766231067218304e-19 -3.195576020445595e-30 -1.9821725600158644 3.43322358331635 1.6515591868889868e-29 -2.9909710841809446e-30 2.36262558865923e-29 2.558730423990809" Properties=species:S:1:pos:R:3:Z:I:1:forces:R:3 stress="0.026246050473938316 5.966873738061795e-18 1.3398144173503868e-29 5.966873738061795e-18 0.026246050473938267 2.284488777726864e-29 1.3398144173503868e-29 2.284488777726864e-29 0.02630894555818753" energy=-325.980293288 Minim_Constant_Volume=T Minim_Hydrostatic_Strain=F pbc="T T T"
Si       0.00000000      -0.00000000       0.00000000       14      -0.00000000       0.00000000       0.00000000 
Si      -0.00000000       2.28881572       1.27936521       14       0.00000000       0.00000000      -0.00000000 
2
Lattice="4.006027484951993 9.717505189473438e-17 -5.773089401393325e-29 -2.003013742475996 3.4693215702271107 1.7837305040467895e-28 -3.8214890931000506e-29 1.241469908383091e-28 2.5668896187188506" Properties=species:S:1:pos:R:3:Z:I:1:forces:R:3 stress="0.048971272963056874 -5.7785003886137995e-18 2.1400641703801726e-30 -5.7785003886137995e-18 0.048971272963056846 -1.000748037943143e-29 2.1400641703801726e-30 -1.000748037943143e-29 0.04903637097682967" energy=-325.948100282 Minim_Constant_Volume=T Minim_Hydrostatic_Strain=F pbc="T T T"
Si       0.00000000      -0.00000000       0.00000000       14      -0.00000000       0.00000000       0.00000000 
Si      -0.00000000       2.31288105       1.28344481       14       0.00000000      -0.00000000      -0.00000000 
2
Lattice="4.046374335663977 1.1531294387067171e-16 -5.755541328727696e-29 -2.023187167831988 3.5042629679063877 1.9728122767330073e-28 -3.8357947404834426e-29 1.390651743320475e-28 2.5758678735441523" Properties=species:S:1:pos:R:3:Z:I:1:forces:R:3 stress="0.06836066714128808 -2.5955913495889253e-17 -9.797359191098311e-30 -2.5955913495889253e-17 0.06836066714128804 3.734070251200198e-30 -9.797359191098311e-30 3.734070251200198e-30 0.06842332499020798" energy=-325.898053926 Minim_Constant_Volume=T Minim_Hydrostatic_Strain=F pbc="T T T"
Si       0.00000000      -0.00000000       0.00000000       14      -0.00000000       0.00000000       0.00000000 
Si      -0.00000000       2.33617531       1.28793394       14       0.00000000      -0.00000000      -0.00000000 
2
Lattice="4.086025227483213 1.0303366561977992e-16 -7.42746313960629e-29 -2.043012613741606 3.5386016475045556 2.4855740231505584e-28 -4.924903905450518e-29 1.7154167858753847e-28 2.584867719987421" Properties=species:S:1:pos:R:3:Z:I:1:forces:R:3 stress="0.08507083382454027 -3.791269709042326e-17 -2.0664036232706713e-29 -3.791269709042326e-17 0.08507083382454017 -2.0651631094613565e-29 -2.0664036232706713e-29 -2.0651631094613565e-29 0.0851105693228872" energy=-325.832660923 Minim_Constant_Volume=T Minim_Hydrostatic_Strain=F pbc="T T T"
Si       0.00000000      -0.00000000       0.00000000       14       0.00000000      -0.00000000       0.00000000 
Si      -0.00000000       2.35906777       1.29243386       14      -0.00000000       0.00000000      -0.00000000 
2
Lattice="4.123948355193257 2.8581264025561797e-16 -1.1052593135007525e-28 -2.0619741775966283 3.5714440394924165 2.979607055706826e-28 -7.245080158556488e-29 1.9536240594067175e-28 2.595227995332053" Properties=species:S:1:pos:R:3:Z:I:1:forces:R:3 stress="0.10199298020213471 -4.109703126018022e-17 1.0607028350075787e-29 -4.109703126018022e-17 0.10199298020213451 2.894327315165307e-29 1.0607028350075787e-29 2.894327315165307e-29 0.10204981295562816" energy=-325.753722392 Minim_Constant_Volume=T Minim_Hydrostatic_Strain=F pbc="T T T"
Si       0.00000000      -0.00000000       0.00000000       14       0.00000000      -0.00000000      -0.00000000 
Si      -0.00000000       2.38096269       1.29761400       14      -0.00000000       0.00000000       0.00000000 
2
Lattice="4.15914682968532 4.731972926443917e-16 -1.5215757666377847e-28 -2.0795734148426597 3.601926812577002 3.4746969146568133e-28 -9.892057690444908e-29 2.1699850716533874e-28 2.6082003602353367" Properties=species:S:1:pos:R:3:Z:I:1:forces:R:3 stress="0.11863074314723458 -2.069713764311711e-17 1.0777204806350898e-29 -2.069713764311711e-17 0.11863074314723436 -3.114354046393536e-29 1.0777204806350898e-29 -3.114354046393536e-29 0.11871949223653402" energy=-325.659698319 Minim_Constant_Volume=T Minim_Hydrostatic_Strain=F pbc="T T T"
Si       0.00000000      -0.00000000       0.00000000       14      -0.00000000      -0.00000000      -0.00000000 
Si      -0.00000000       2.40128454       1.30410018       14       0.00000000       0.00000000       0.00000000 
