3
Lattice="4.00969761952195 -2.315 0.0 4.00969761952195 2.315 0.0 0.0 0.0 2.8243" Properties=species:S:1:pos:R:3:Z:I:1:forces:R:3 energy=-18.1911155734 stress="-0.004351619365340332 1.0719139910978662e-19 -4.643941345329226e-31 1.0719139910978662e-19 -0.004351619365340333 -4.82612541448799e-31 -4.643941345329226e-31 -4.82612541448799e-31 -0.01289767250857245" pbc="T T T"
Ti       1.33656587       0.00000000       0.00000000       22       0.00000000       0.00000000       0.00000000 
Ti       4.00969762       0.00000000       1.41215000       22      -0.00000000      -0.00000000       0.00000000 
Ti       6.68282937       0.00000000       1.41215000       22       0.00000000       0.00000000      -0.00000000 
3
Lattice="4.017963842847508 -2.319772506262192 3.528604231981668e-31 4.017963842847508 2.319772506262192 1.411441692792667e-30 6.21358383975472e-31 6.457345744526452e-31 2.8415570589312713" Properties=species:S:1:pos:R:3:Z:I:1:forces:R:3 energy=-18.1939164316 stress="0.0016448580757037266 8.386014077647663e-20 -5.145195130678222e-34 8.386014077647663e-20 0.0016448580757037258 1.9710486340156956e-34 -5.145195130678222e-34 1.9710486340156956e-34 -0.002831588378534289" pbc="T T T"
Ti       1.33932128      -0.00000000       0.00000000       22       0.00000000       0.00000000       0.00000000 
Ti       4.01796384      -0.00000000       1.42077853       22       0.00000000       0.00000000       0.00000000 
Ti       6.69660640      -0.00000000       1.42077853       22      -0.00000000      -0.00000000       0.00000000 
3
Lattice="4.016944506692965 -2.3191839922589725 3.867864863551461e-31 4.016944506692965 2.3191839922589725 1.5448285945239854e-30 6.810379926374815e-31 7.071922848007731e-31 2.8453748602491817" Properties=species:S:1:pos:R:3:Z:I:1:forces:R:3 energy=-18.1941056331 stress="0.0017665211059938667 4.602671148879228e-20 -1.0306125134105587e-29 4.602671148879228e-20 0.0017665211059938665 1.1369520787948738e-18 -1.0306125134105587e-29 1.1369520787948738e-18 -0.0011957209983176015" pbc="T T T"
Ti       1.33898150      -0.00000000       0.00000000       22       0.00000000       0.00000000       0.00000000 
Ti       4.01694451      -0.00000000       1.42268743       22       0.00000000       0.00000000       0.00000000 
Ti       6.69490751      -0.00000000       1.42268743       22      -0.00000000      -0.00000000      -0.00000000 
3
Lattice="4.013160238129967 -2.3169991437854396 1.327001242411395e-18 4.013160238129967 2.3169991437854396 -1.327001242367614e-18 1.533874971359357e-29 -1.6098547949256955e-18 2.8501252709395732" Properties=species:S:1:pos:R:3:Z:I:1:forces:R:3 energy=-18.1942760844 stress="0.0008929794168215285 2.5481688164435944e-19 5.880980399295592e-30 2.5481688164435944e-19 0.0008929794168215288 7.090300756380303e-22 5.880980399295592e-30 7.090300756380303e-22 0.00035731462913192474" pbc="T T T"
Ti       1.33772008      -0.00000000       0.00000000       22       0.00000000       0.00000000       0.00000000 
Ti       4.01316024      -0.00000000       1.42506264       22      -0.00000000      -0.00000000      -0.00000000 
Ti       6.68860040      -0.00000000       1.42506264       22       0.00000000       0.00000000       0.00000000 
