3
Lattice="4.012455776732432 -2.316592422807939 1.329082186715965e-18 4.012455776732432 2.316592422807939 -1.3290821777558207e-18 3.181507725290997e-27 -1.6115588816195747e-18 2.8511258804903408" Properties=species:S:1:pos:R:3:Z:I:1:forces:R:3 stress="0.0007445801816464942 2.0979988063501e-19 -3.930062571430852e-30 2.0979988063501e-19 0.0007445801816464942 8.499723813665316e-22 -3.930062571430852e-30 8.499723813665316e-22 0.0007479374849794887" energy=-18.1942810408 Minim_Constant_Volume=T Minim_Hydrostatic_Strain=F pbc="T T T"
Ti       1.33748526      -0.00000000       0.00000000       22       0.00000000       0.00000000       0.00000000 
Ti       4.01245578      -0.00000000       1.42556294       22      -0.00000000       0.00000000      -0.00000000 
Ti       6.68742629      -0.00000000       1.42556294       22       0.00000000      -0.00000000       0.00000000 
3
Lattice="3.978269814257086 -2.296855148170291 1.2684164000430385e-18 3.978269814257086 2.296855148170291 -1.2684163912195638e-18 3.1318572425347967e-27 -1.5365307749289384e-18 2.827828576947623" Properties=species:S:1:pos:R:3:Z:I:1:forces:R:3 stress="-0.01854126746359682 -7.44618188803104e-19 1.609518344146385e-29 -7.44618188803104e-19 -0.01854126746359682 3.583971256560602e-18 1.609518344146385e-29 3.583971256560602e-18 -0.01854043069027053" energy=-18.1829047484 Minim_Constant_Volume=T Minim_Hydrostatic_Strain=F pbc="T T T"
Ti       1.32608994      -0.00000000       0.00000000       22       0.00000000       0.00000000       0.00000000 
Ti       3.97826981      -0.00000000       1.41391429       22       0.00000000      -0.00000000       0.00000000 
Ti       6.63044969      -0.00000000       1.41391429       22      -0.00000000       0.00000000      -0.00000000 
3
Lattice="3.944414948434655 -2.277309032274332 1.1510680773340699e-18 3.944414948434655 2.277309032274332 -1.1510680310803859e-18 1.6435984058488306e-26 -1.392788992472595e-18 2.802820898863285" Properties=species:S:1:pos:R:3:Z:I:1:forces:R:3 stress="-0.041572766930749586 -6.356289542593103e-18 5.7192102533909905e-28 -6.356289542593103e-18 -0.041572766930749634 -1.4137212131933615e-29 5.7192102533909905e-28 -1.4137212131933615e-29 -0.041579715468465894" energy=-18.1436031087 Minim_Constant_Volume=T Minim_Hydrostatic_Strain=F pbc="T T T"
Ti       1.31480498      -0.00000000       0.00000000       22       0.00000000       0.00000000       0.00000000 
Ti       3.94441495      -0.00000000       1.40141045       22       0.00000000       0.00000000       0.00000000 
Ti       6.57402491      -0.00000000       1.40141045       22       0.00000000       0.00000000      -0.00000000 
3
Lattice="3.9095068398792097 -2.257154826402945 1.1408811142676633e-18 3.9095068398792097 2.257154826402945 -1.140881068423325e-18 1.6290525448471384e-26 -1.3804627970850237e-18 2.7780159081414495" Properties=species:S:1:pos:R:3:Z:I:1:forces:R:3 stress="-0.0712019799484529 -9.110259929507887e-18 3.12181301412542e-28 -9.110259929507887e-18 -0.0712019799484529 -2.42673175521284e-29 3.12181301412542e-28 -2.42673175521284e-29 -0.07116265234687336" energy=-18.0698171775 Minim_Constant_Volume=T Minim_Hydrostatic_Strain=F pbc="T T T"
Ti       1.30316895      -0.00000000       0.00000000       22       0.00000000       0.00000000       0.00000000 
Ti       3.90950684      -0.00000000       1.38900795       22       0.00000000       0.00000000       0.00000000 
Ti       6.51584473      -0.00000000       1.38900795       22       0.00000000       0.00000000       0.00000000 
3
Lattice="3.8643649044026867 -2.231092117803834 1.1361113003856089e-18 3.8643649044026867 2.231092117803834 -1.136111244944697e-18 1.9580085624803687e-26 -1.3645229956289482e-18 2.766401523349458" Properties=species:S:1:pos:R:3:Z:I:1:forces:R:3 stress="-0.10023460805007475 -4.6792641245948765e-17 -2.7866426617274e-28 -4.6792641245948765e-17 -0.10023460805007481 -1.0057132951557303e-19 -2.7866426617274e-28 -1.0057132951557303e-19 -0.10041047203026866" energy=-17.9561873819 Minim_Constant_Volume=T Minim_Hydrostatic_Strain=F pbc="T T T"
Ti       1.28812163      -0.00000000       0.00000000       22       0.00000000       0.00000000       0.00000000 
Ti       3.86436490      -0.00000000       1.38320076       22       0.00000000      -0.00000000       0.00000000 
Ti       6.44060817      -0.00000000       1.38320076       22      -0.00000000       0.00000000      -0.00000000 
3
Lattice="3.7874071752622043 -2.186660552168354 1.006148015349514e-16 3.7874071752622043 2.1866605521683544 -1.0061480146755111e-16 2.3236526661586037e-26 -1.246674813548288e-16 2.7990689212671525" Properties=species:S:1:pos:R:3:Z:I:1:forces:R:3 stress="-0.1126363450100449 -4.11456071895564e-17 7.181966888095357e-27 -4.11456071895564e-17 -0.11263634501004492 -4.0428105236053356e-29 7.181966888095357e-27 -4.0428105236053356e-29 -0.1126256555832298" energy=-17.8072922001 Minim_Constant_Volume=T Minim_Hydrostatic_Strain=F pbc="T T T"
Ti       1.26246906       0.00000000       0.00000000       22       0.00000000       0.00000000       0.00000000 
Ti       3.78740718       0.00000000       1.39953446       22       0.00000000      -0.00000000       0.00000000 
Ti       6.31234529       0.00000000       1.39953446       22       0.00000000       0.00000000       0.00000000 
3
Lattice="4.0497025480039825 -2.338096856228013 1.3880779969442861e-18 4.0497025480039825 2.338096856228013 -1.3880779969265485e-18 6.1280923149018865e-30 -1.6888975192324685e-18 2.8688884263905985" Properties=species:S:1:pos:R:3:Z:I:1:forces:R:3 stress="0.01661318791846961 1.4386288650882776e-18 -2.667930195033502e-32 1.4386288650882776e-18 0.016613187918469594 1.0037759577247709e-29 -2.667930195033502e-32 1.0037759577247709e-29 0.01643163943513372" energy=-18.1824378488 Minim_Constant_Volume=T Minim_Hydrostatic_Strain=F pbc="T T T"
Ti       1.34990085      -0.00000000       0.00000000       22       0.00000000       0.00000000       0.00000000 
Ti       4.04970255      -0.00000000       1.43444421       22       0.00000000      -0.00000000       0.00000000 
Ti       6.74950425      -0.00000000       1.43444421       22      -0.00000000       0.00000000      -0.00000000 
3
Lattice="4.087087680131556 -2.3596811723255575 1.3960366083212804e-18 4.087087680131556 2.3596811723255575 -1.3960366083030365e-18 6.3280125889691e-30 -1.7044887030683257e-18 2.8853373349672515" Properties=species:S:1:pos:R:3:Z:I:1:forces:R:3 stress="0.030099010361701563 5.368313927397159e-18 -1.8271594101397982e-28 5.368313927397159e-18 0.030099010361701577 3.555818969601796e-20 -1.8271594101397982e-28 3.555818969601796e-20 0.030048724287877276" energy=-18.1513797939 Minim_Constant_Volume=T Minim_Hydrostatic_Strain=F pbc="T T T"
Ti       1.36236256      -0.00000000       0.00000000       22       0.00000000       0.00000000       0.00000000 
Ti       4.08708768      -0.00000000       1.44266867       22       0.00000000       0.00000000       0.00000000 
Ti       6.81181280      -0.00000000       1.44266867       22       0.00000000      -0.00000000       0.00000000 
3
Lattice="4.1240915644569105 -2.3810453749018623 1.5320148378289285e-18 4.1240915644569105 2.3810453749018623 -1.5320148378100047e-18 6.589791639020305e-30 -1.8767687138618484e-18 2.9012625666636596" Properties=species:S:1:pos:R:3:Z:I:1:forces:R:3 stress="0.04266331045057616 -8.276043587533466e-18 5.5532162965305206e-30 -8.276043587533466e-18 0.04266331045057615 5.508366373115625e-20 5.5532162965305206e-30 5.508366373115625e-20 0.04271793638338862" energy=-18.1031372983 Minim_Constant_Volume=T Minim_Hydrostatic_Strain=F pbc="T T T"
Ti       1.37469719      -0.00000000       0.00000000       22       0.00000000       0.00000000       0.00000000 
Ti       4.12409156      -0.00000000       1.45063128       22       0.00000000      -0.00000000       0.00000000 
Ti       6.87348594      -0.00000000       1.45063128       22      -0.00000000       0.00000000      -0.00000000 
3
Lattice="4.15923288594503 -2.401334226322707 1.72228417191612e-18 4.15923288594503 2.401334226322707 -1.7222841699920613e-18 6.767287006214752e-28 -2.1133254593451053e-18 2.9187861767468624" Properties=species:S:1:pos:R:3:Z:I:1:forces:R:3 stress="0.05603579537148479 6.8132635727179385e-18 1.8982627905375717e-28 6.8132635727179385e-18 0.056035795371484794 2.6973256974210614e-28 1.8982627905375717e-28 2.6973256974210614e-28 0.05600591971622308" energy=-18.037890881 Minim_Constant_Volume=T Minim_Hydrostatic_Strain=F pbc="T T T"
Ti       1.38641096      -0.00000000       0.00000000       22       0.00000000       0.00000000       0.00000000 
Ti       4.15923289      -0.00000000       1.45939309       22       0.00000000      -0.00000000       0.00000000 
Ti       6.93205481      -0.00000000       1.45939309       22      -0.00000000       0.00000000      -0.00000000 
3
Lattice="4.192749694378433 -2.4206851646941097 1.980379796146754e-18 4.192749694378433 2.4206851646941097 -1.9803797940680075e-18 7.321096186500808e-28 -2.430580211642526e-18 2.9375903184621697" Properties=species:S:1:pos:R:3:Z:I:1:forces:R:3 stress="0.06978006648982735 -1.0282497629426071e-19 -2.754657908466629e-28 -1.0282497629426071e-19 0.06978006648982733 1.1482220639376857e-19 -2.754657908466629e-28 1.1482220639376857e-19 0.06977784515616206" energy=-17.9545451858 Minim_Constant_Volume=T Minim_Hydrostatic_Strain=F pbc="T T T"
Ti       1.39758323      -0.00000000       0.00000000       22       0.00000000       0.00000000       0.00000000 
Ti       4.19274969      -0.00000000       1.46879516       22      -0.00000000       0.00000000      -0.00000000 
Ti       6.98791616      -0.00000000       1.46879516       22       0.00000000      -0.00000000       0.00000000 
3
Lattice="4.224786941971785 -2.4391818782162265 1.9938033376254307e-18 4.224786941971785 2.439181878216226 -1.993803335764431e-18 6.564870407815525e-28 -2.4491525336166867e-18 2.957502088666544" Properties=species:S:1:pos:R:3:Z:I:1:forces:R:3 stress="0.08332728858047782 1.950331060050901e-17 1.368862704617358e-28 1.950331060050901e-17 0.08332728858047786 1.3711801551123837e-19 1.368862704617358e-28 1.3711801551123837e-19 0.08332868765410942" energy=-17.8528957085 Minim_Constant_Volume=T Minim_Hydrostatic_Strain=F pbc="T T T"
Ti       1.40826231      -0.00000000       0.00000000       22       0.00000000       0.00000000       0.00000000 
Ti       4.22478694      -0.00000000       1.47875104       22       0.00000000      -0.00000000       0.00000000 
Ti       7.04131157      -0.00000000       1.47875104       22      -0.00000000       0.00000000      -0.00000000 
