3
Lattice="4.061591711079735 -2.3449610677302375 1.5002977128084364e-19 4.061591711079735 2.3449610677302375 -1.50029771280808e-19 1.26227609670883e-32 -1.8366122952187615e-19 2.8392363299438728" Properties=species:S:1:pos:R:3:Z:I:1:map_shift:I:3:n_neighb:I:1:force:R:3:forces:R:3 stress="4.799710363229721e-05 -1.504784591668836e-21 1.5591980829410157e-34 -1.504784591668836e-21 4.799710363229724e-05 7.701163413758353e-22 1.5591980829410157e-34 7.701163413758353e-22 4.0614932824322826e-05" Minim_Constant_Volume=T pbc="T T T" virial="-0.002595843290192912 -6.939634270563617e-17 -9.992007221626409e-16 -7.633393864855784e-17 -0.0025958432901507233 3.461088400013828e-17 2.636779683484747e-16 3.3403105702950988e-18 -0.0021965908955773883" energy=-18.2034964936 Minim_Hydrostatic_Strain=F
Ti       1.35386390      -0.00000000       0.00000000       22        0        0        0      174       0.00000000      -0.00000000      -0.00000000       0.00000000       0.00000000       0.00000000 
Ti       4.06159171      -0.00000000       1.41961816       22       -1       -1       -1      168       0.00000000       0.00000000       0.00000000       0.00000000       0.00000000      -0.00000000 
Ti       6.76931952      -0.00000000       1.41961816       22       -1       -1       -1      168      -0.00000000       0.00000000      -0.00000000      -0.00000000      -0.00000000       0.00000000 
3
Lattice="4.022188610271315 -2.32221167687159 1.4915832511006676e-19 4.022188610271315 2.32221167687159 -1.491583251099907e-19 2.67087733356573e-32 -1.8187945960108214e-19 2.8227446589464917" Properties=species:S:1:pos:R:3:Z:I:1:map_shift:I:3:n_neighb:I:1:force:R:3:forces:R:3 stress="-0.016199272607131266 -4.102612635474742e-18 1.1549775707088227e-34 -4.102612635474742e-18 -0.01619927260713127 -9.551182467453475e-36 1.1549775707088227e-34 -9.551182467453475e-36 -0.016213848281656604" Minim_Constant_Volume=T pbc="T T T" virial="-0.002595843290192912 -6.939634270563617e-17 -9.992007221626409e-16 -7.633393864855784e-17 -0.0025958432901507233 3.461088400013828e-17 2.636779683484747e-16 3.3403105702950988e-18 -0.0021965908955773883" energy=-18.192218432 Minim_Hydrostatic_Strain=F
Ti       1.34072954      -0.00000000       0.00000000       22        0        0        0      174       0.00000000      -0.00000000      -0.00000000       0.00000000       0.00000000       0.00000000 
Ti       4.02218861      -0.00000000       1.41137233       22       -1       -1       -1      168       0.00000000       0.00000000       0.00000000      -0.00000000       0.00000000      -0.00000000 
Ti       6.70364768      -0.00000000       1.41137233       22       -1       -1       -1      168      -0.00000000       0.00000000      -0.00000000       0.00000000       0.00000000       0.00000000 
3
Lattice="3.9829915461390035 -2.299581241343357 1.4820850706796173e-19 3.9829915461390035 2.299581241343357 -1.4820850706788693e-19 2.617482677848373e-32 -1.801070064584995e-19 2.8047698405557484" Properties=species:S:1:pos:R:3:Z:I:1:map_shift:I:3:n_neighb:I:1:force:R:3:forces:R:3 stress="-0.03129503384041065 -1.1227434076802453e-17 -4.023777337848126e-35 -1.1227434076802453e-17 -0.031295033840410665 -1.196351746137955e-18 -4.023777337848126e-35 -1.196351746137955e-18 -0.031437954594524954" Minim_Constant_Volume=T pbc="T T T" virial="-0.002595843290192912 -6.939634270563617e-17 -9.992007221626409e-16 -7.633393864855784e-17 -0.0025958432901507233 3.461088400013828e-17 2.636779683484747e-16 3.3403105702950988e-18 -0.0021965908955773883" energy=-18.1603895006 Minim_Hydrostatic_Strain=F
Ti       1.32766385      -0.00000000       0.00000000       22        0        0        0      174       0.00000000      -0.00000000      -0.00000000       0.00000000       0.00000000       0.00000000 
Ti       3.98299155      -0.00000000       1.40238492       22       -1       -1       -1      180       0.00000000       0.00000000       0.00000000       0.00000000       0.00000000      -0.00000000 
Ti       6.63831924      -0.00000000       1.40238492       22       -1       -1       -1      180      -0.00000000       0.00000000      -0.00000000      -0.00000000      -0.00000000       0.00000000 
3
Lattice="3.942709426637046 -2.2763243488053733 -3.67931261892597e-18 3.942709426637046 2.2763243488053733 3.67931261892605e-18 2.802260871793249e-32 4.488950792278663e-18 2.7870460344100043" Properties=species:S:1:pos:R:3:Z:I:1:map_shift:I:3:n_neighb:I:1:force:R:3:forces:R:3 stress="-0.04739245566908853 -1.0411829765327664e-17 1.0698840120195481e-32 -1.0411829765327664e-17 -0.04739245566908855 -1.858128089425498e-18 1.0698840120195481e-32 -1.858128089425498e-18 -0.04747595018205729" Minim_Constant_Volume=T pbc="T T T" virial="-0.002595843290192912 -6.939634270563617e-17 -9.992007221626409e-16 -7.633393864855784e-17 -0.0025958432901507233 3.461088400013828e-17 2.636779683484747e-16 3.3403105702950988e-18 -0.0021965908955773883" energy=-18.1068697264 Minim_Hydrostatic_Strain=F
Ti       1.31423648       0.00000000       0.00000000       22        0        0        0      174       0.00000000      -0.00000000      -0.00000000       0.00000000       0.00000000       0.00000000 
Ti       3.94270943       0.00000000       1.39352302       22       -1       -1       -1      180       0.00000000       0.00000000       0.00000000       0.00000000       0.00000000       0.00000000 
Ti       6.57118238       0.00000000       1.39352302       22       -1       -1       -1      180      -0.00000000       0.00000000      -0.00000000      -0.00000000      -0.00000000      -0.00000000 
3
Lattice="3.9023100252927323 -2.2529997435641342 1.8527226980285095e-18 3.9023100252927323 2.2529997435641342 -1.852722698028441e-18 2.4028407344349506e-32 -2.2997365609307967e-18 2.7681605016569266" Properties=species:S:1:pos:R:3:Z:I:1:map_shift:I:3:n_neighb:I:1:force:R:3:forces:R:3 stress="-0.06228442853859864 -1.7488616166599634e-18 -1.2306942179708456e-32 -1.7488616166599634e-18 -0.062284428538598675 2.0549147955394978e-18 -1.2306942179708456e-32 2.0549147955394978e-18 -0.062317832528154336" Minim_Constant_Volume=T pbc="T T T" virial="-0.002595843290192912 -6.939634270563617e-17 -9.992007221626409e-16 -7.633393864855784e-17 -0.0025958432901507233 3.461088400013828e-17 2.636779683484747e-16 3.3403105702950988e-18 -0.0021965908955773883" energy=-18.0327256732 Minim_Hydrostatic_Strain=F
Ti       1.30077001       0.00000000       0.00000000       22        0        0        0      174       0.00000000      -0.00000000      -0.00000000       0.00000000       0.00000000       0.00000000 
Ti       3.90231003      -0.00000000       1.38408025       22       -1       -1       -1      180       0.00000000       0.00000000       0.00000000      -0.00000000      -0.00000000      -0.00000000 
Ti       6.50385004      -0.00000000       1.38408025       22       -1       -1       -1      180      -0.00000000       0.00000000      -0.00000000       0.00000000       0.00000000      -0.00000000 
3
Lattice="3.865842968853629 -2.231945478712465 1.8354090190134896e-18 3.865842968853629 2.231945478712465 -1.8354090190134215e-18 2.3803862067042272e-32 -2.2782455408890867e-18 2.742292063579958" Properties=species:S:1:pos:R:3:Z:I:1:map_shift:I:3:n_neighb:I:1:force:R:3:forces:R:3 stress="-0.08013479206986966 7.467140930254872e-20 6.173787102103208e-34 7.467140930254872e-20 -0.08013479206986969 1.5467112537230547e-17 6.173787102103208e-34 1.5467112537230547e-17 -0.0801777551607811" Minim_Constant_Volume=T pbc="T T T" virial="-0.002595843290192912 -6.939634270563617e-17 -9.992007221626409e-16 -7.633393864855784e-17 -0.0025958432901507233 3.461088400013828e-17 2.636779683484747e-16 3.3403105702950988e-18 -0.0021965908955773883" energy=-17.9366454585 Minim_Hydrostatic_Strain=F
Ti       1.28861432       0.00000000       0.00000000       22        0        0        0      180       0.00000000      -0.00000000      -0.00000000       0.00000000       0.00000000       0.00000000 
Ti       3.86584297      -0.00000000       1.37114603       22       -1       -1       -1      186       0.00000000       0.00000000       0.00000000       0.00000000       0.00000000       0.00000000 
Ti       6.44307161      -0.00000000       1.37114603       22       -1       -1       -1      186      -0.00000000       0.00000000      -0.00000000       0.00000000       0.00000000       0.00000000 
3
Lattice="4.102240047021244 -2.368429395428178 7.701422541000938e-18 4.102240047021244 2.368429395428178 -7.701422541000904e-18 1.1267047806213737e-32 -9.32772067339056e-18 2.852803760488885" Properties=species:S:1:pos:R:3:Z:I:1:map_shift:I:3:n_neighb:I:1:force:R:3:forces:R:3 stress="0.019314932783493177 3.0858831877876503e-18 -1.391767277623311e-33 3.0858831877876503e-18 0.019314932783493183 3.846350419387085e-19 -1.391767277623311e-33 3.846350419387085e-19 0.019272876960839395" Minim_Constant_Volume=T pbc="T T T" virial="-0.002595843290192912 -6.939634270563617e-17 -9.992007221626409e-16 -7.633393864855784e-17 -0.0025958432901507233 3.461088400013828e-17 2.636779683484747e-16 3.3403105702950988e-18 -0.0021965908955773883" energy=-18.190721374 Minim_Hydrostatic_Strain=F
Ti       1.36741335      -0.00000000       0.00000000       22        0        0        0      174       0.00000000      -0.00000000      -0.00000000       0.00000000       0.00000000       0.00000000 
Ti       4.10224005      -0.00000000       1.42640188       22       -1       -1        0      168       0.00000000       0.00000000       0.00000000      -0.00000000       0.00000000      -0.00000000 
Ti       6.83706675      -0.00000000       1.42640188       22       -1       -1        0      168      -0.00000000       0.00000000      -0.00000000       0.00000000      -0.00000000       0.00000000 
3
Lattice="4.140133427367821 -2.390307148771779 -1.2423781108558565e-17 4.140133427367821 2.390307148771779 1.2423781108558618e-17 1.8332155595280267e-32 1.488033068672382e-17 2.8691479315484907" Properties=species:S:1:pos:R:3:Z:I:1:map_shift:I:3:n_neighb:I:1:force:R:3:forces:R:3 stress="0.03837629154581123 -1.2127683713037468e-18 -2.6883826505945685e-33 -1.2127683713037468e-18 0.03837629154581121 9.50586611024325e-19 -2.6883826505945685e-33 9.50586611024325e-19 0.038412106730943495" Minim_Constant_Volume=T pbc="T T T" virial="-0.002595843290192912 -6.939634270563617e-17 -9.992007221626409e-16 -7.633393864855784e-17 -0.0025958432901507233 3.461088400013828e-17 2.636779683484747e-16 3.3403105702950988e-18 -0.0021965908955773883" energy=-18.1514440467 Minim_Hydrostatic_Strain=F
Ti       1.38004448      -0.00000000       0.00000000       22        0        0        0      162       0.00000000      -0.00000000      -0.00000000       0.00000000       0.00000000       0.00000000 
Ti       4.14013343      -0.00000000       1.43457397       22       -1       -1        0      156       0.00000000       0.00000000       0.00000000      -0.00000000       0.00000000       0.00000000 
Ti       6.90022238      -0.00000000       1.43457397       22       -1       -1        0      156      -0.00000000       0.00000000      -0.00000000       0.00000000      -0.00000000      -0.00000000 
3
Lattice="4.173910436161411 -2.4098083138911788 -1.251460170586415e-17 4.173910436161411 2.4098083138911788 1.2514601705864208e-17 1.930751498125219e-32 1.500173089502014e-17 2.8901220397225167" Properties=species:S:1:pos:R:3:Z:I:1:map_shift:I:3:n_neighb:I:1:force:R:3:forces:R:3 stress="0.05455385008603686 3.290552988262754e-18 -1.2344170636189421e-33 3.290552988262754e-18 0.054553850086036866 1.5684947385338078e-18 -1.2344170636189421e-33 1.5684947385338078e-18 0.05456338208684732" Minim_Constant_Volume=T pbc="T T T" virial="-0.002595843290192912 -6.939634270563617e-17 -9.992007221626409e-16 -7.633393864855784e-17 -0.0025958432901507233 3.461088400013828e-17 2.636779683484747e-16 3.3403105702950988e-18 -0.0021965908955773883" energy=-18.0877649828 Minim_Hydrostatic_Strain=F
Ti       1.39130348      -0.00000000       0.00000000       22        0        0        0      162       0.00000000      -0.00000000      -0.00000000       0.00000000       0.00000000       0.00000000 
Ti       4.17391044      -0.00000000       1.44506102       22       -1        0        0      156       0.00000000       0.00000000       0.00000000       0.00000000       0.00000000       0.00000000 
Ti       6.95651739      -0.00000000       1.44506102       22       -1       -1        0      156      -0.00000000       0.00000000      -0.00000000      -0.00000000      -0.00000000      -0.00000000 
3
Lattice="4.200768079799038 -2.4253145816751616 -1.2642360425375032e-17 4.200768079799038 2.425314581675161 1.2642360425375239e-17 6.953978603457275e-32 1.5098261749835683e-17 2.919626637607739" Properties=species:S:1:pos:R:3:Z:I:1:map_shift:I:3:n_neighb:I:1:force:R:3:forces:R:3 stress="0.06760265604064135 -3.9495497553630497e-19 -1.7350203367697745e-33 -3.9495497553630497e-19 0.06760265604064138 7.473185173749162e-18 -1.7350203367697745e-33 7.473185173749162e-18 0.0677029958293163" Minim_Constant_Volume=T pbc="T T T" virial="-0.002595843290192912 -6.939634270563617e-17 -9.992007221626409e-16 -7.633393864855784e-17 -0.0025958432901507233 3.461088400013828e-17 2.636779683484747e-16 3.3403105702950988e-18 -0.0021965908955773883" energy=-18.0051198582 Minim_Hydrostatic_Strain=F
Ti       1.40025603      -0.00000000       0.00000000       22        0        0        0      162       0.00000000      -0.00000000      -0.00000000       0.00000000       0.00000000       0.00000000 
Ti       4.20076808      -0.00000000       1.45981332       22       -1        0        0      156       0.00000000       0.00000000       0.00000000       0.00000000       0.00000000       0.00000000 
Ti       7.00128013      -0.00000000       1.45981332       22       -1       -1        0      156      -0.00000000       0.00000000      -0.00000000       0.00000000       0.00000000       0.00000000 
3
Lattice="4.223432182938562 -2.438399707723707 1.944601328113548e-17 4.223432182938562 2.4383997077237067 -1.9446013281135206e-17 9.169525626041555e-32 -2.3627850631219007e-17 2.953994988280735" Properties=species:S:1:pos:R:3:Z:I:1:map_shift:I:3:n_neighb:I:1:force:R:3:forces:R:3 stress="0.08011908617697187 -5.054447613985203e-18 -1.1879451428060671e-32 -5.054447613985203e-18 0.080119086176972 -1.1068208508467684e-17 -1.1879451428060671e-32 -1.1068208508467684e-17 0.0800620068526844" Minim_Constant_Volume=T pbc="T T T" virial="-0.002595843290192912 -6.939634270563617e-17 -9.992007221626409e-16 -7.633393864855784e-17 -0.0025958432901507233 3.461088400013828e-17 2.636779683484747e-16 3.3403105702950988e-18 -0.0021965908955773883" energy=-17.9051937345 Minim_Hydrostatic_Strain=F
Ti       1.40781073      -0.00000000       0.00000000       22        0        0        0      162       0.00000000      -0.00000000      -0.00000000       0.00000000       0.00000000       0.00000000 
Ti       4.22343218      -0.00000000       1.47699749       22       -1        0        0      156       0.00000000       0.00000000       0.00000000      -0.00000000       0.00000000      -0.00000000 
Ti       7.03905364      -0.00000000       1.47699749       22       -1       -1        0      156      -0.00000000       0.00000000      -0.00000000       0.00000000      -0.00000000       0.00000000 
3
Lattice="4.244403141694029 -2.450507296406341 6.876648803631931e-17 4.244403141694029 2.4505072964063404 -6.876648803631948e-17 -6.770665251966635e-32 -8.32083275094622e-17 2.9898632213888074" Properties=species:S:1:pos:R:3:Z:I:1:map_shift:I:3:n_neighb:I:1:force:R:3:forces:R:3 stress="0.09228550508800946 7.160444793574083e-18 4.564992257617411e-32 7.160444793574083e-18 0.09228550508800948 -7.198296293588004e-18 4.564992257617411e-32 -7.198296293588004e-18 0.09224877047747936" Minim_Constant_Volume=T pbc="T T T" virial="-0.002595843290192912 -6.939634270563617e-17 -9.992007221626409e-16 -7.633393864855784e-17 -0.0025958432901507233 3.461088400013828e-17 2.636779683484747e-16 3.3403105702950988e-18 -0.0021965908955773883" energy=-17.7887426649 Minim_Hydrostatic_Strain=F
Ti       1.41480105       0.00000000      -0.00000000       22        0        0        0      162       0.00000000      -0.00000000      -0.00000000       0.00000000       0.00000000       0.00000000 
Ti       4.24440314      -0.00000000       1.49493161       22       -1        0        0      156       0.00000000       0.00000000       0.00000000      -0.00000000       0.00000000      -0.00000000 
Ti       7.07400524      -0.00000000       1.49493161       22       -1       -1        0      156      -0.00000000       0.00000000      -0.00000000       0.00000000      -0.00000000       0.00000000 
