4
Lattice="3.8457316761059666 0.0 0.0 0.0 3.8457316761059666 -3.2003797321071107e-34 0.0 -3.2003797321071107e-34 3.8457316761059666" Properties=species:S:1:pos:R:3:Z:I:1:forces:R:3 stress="-2.125177013814755e-06 -1.736285999752635e-35 -1.4449199764181755e-69 -1.736285999752635e-35 -2.1251770138147554e-06 -3.4725719995052693e-35 -1.4449199764181755e-69 -3.4725719995052693e-35 -2.125177013814755e-06" energy=-650.689915992 Minim_Constant_Volume=T Minim_Hydrostatic_Strain=F pbc="T T T"
Si       0.00000000       0.00000000       0.00000000       14       0.00000000      -0.00000000      -0.00000000 
Si       1.92286584       1.92286584      -0.00000000       14       0.00000000      -0.00000000       0.00000000 
Si       1.92286584      -0.00000000       1.92286584       14      -0.00000000      -0.00000000       0.00000000 
Si       0.00000000       1.92286584       1.92286584       14      -0.00000000      -0.00000000       0.00000000 
4
Lattice="3.8134130752303443 0.0 0.0 0.0 3.8134130752303443 -3.173484513219367e-34 0.0 -3.173484513219367e-34 3.8134130752303443" Properties=species:S:1:pos:R:3:Z:I:1:forces:R:3 stress="-0.055705347073956295 -5.297522065374308e-35 -4.4085452850889374e-69 -5.297522065374308e-35 -0.055705347073956364 -2.7811990843215114e-34 -4.4085452850889374e-69 -2.7811990843215114e-34 -0.05570534707395628" energy=-650.649679543 Minim_Constant_Volume=T Minim_Hydrostatic_Strain=F pbc="T T T"
Si       0.00000000       0.00000000       0.00000000       14      -0.00000000      -0.00000000       0.00000000 
Si       1.90670654       1.90670654      -0.00000000       14      -0.00000000      -0.00000000      -0.00000000 
Si       1.90670654      -0.00000000       1.90670654       14      -0.00000000      -0.00000000       0.00000000 
Si       0.00000000       1.90670654       1.90670654       14       0.00000000      -0.00000000      -0.00000000 
4
Lattice="3.780537188649863 0.0 0.0 0.0 3.780537188649863 -3.1461255266990793e-34 0.0 -3.1461255266990793e-34 3.780537188649863" Properties=species:S:1:pos:R:3:Z:I:1:forces:R:3 stress="-0.09884507420127212 3.234034870499191e-34 2.6913317215499e-68 3.234034870499191e-34 -0.09884507420127214 2.5153604548327046e-34 2.6913317215499e-68 2.5153604548327046e-34 -0.09884507420127212" energy=-650.537466766 Minim_Constant_Volume=T Minim_Hydrostatic_Strain=F pbc="T T T"
Si       0.00000000       0.00000000       0.00000000       14       0.00000000       0.00000000      -0.00000000 
Si       1.89026859       1.89026859      -0.00000000       14       0.00000000       0.00000000      -0.00000000 
Si       1.89026859      -0.00000000       1.89026859       14      -0.00000000       0.00000000       0.00000000 
Si       0.00000000       1.89026859       1.89026859       14      -0.00000000      -0.00000000      -0.00000000 
4
Lattice="3.747079352663609 0.0 0.0 0.0 3.747079352663609 -3.118282247659135e-34 0.0 -3.118282247659135e-34 3.747079352663609" Properties=species:S:1:pos:R:3:Z:I:1:forces:R:3 stress="-0.11741843101338524 1.0973487972143467e-34 9.132027778945184e-69 1.0973487972143467e-34 -0.11741843101338521 5.623912585723527e-34 9.132027778945184e-69 5.623912585723527e-34 -0.11741843101338524" energy=-650.380404431 Minim_Constant_Volume=T Minim_Hydrostatic_Strain=F pbc="T T T"
Si       0.00000000       0.00000000       0.00000000       14       0.00000000      -0.00000000      -0.00000000 
Si       1.87353968       1.87353968      -0.00000000       14       0.00000000      -0.00000000       0.00000000 
Si       1.87353968      -0.00000000       1.87353968       14       0.00000000      -0.00000000      -0.00000000 
Si       0.00000000       1.87353968       1.87353968       14      -0.00000000      -0.00000000      -0.00000000 
4
Lattice="3.7130131093219267 0.0 0.0 0.0 3.7130131093219267 -3.0899326580564243e-34 0.0 -3.0899326580564243e-34 3.7130131093219267" Properties=species:S:1:pos:R:3:Z:I:1:forces:R:3 stress="-0.11044433498499193 0.0 0.0 0.0 -0.11044433498499193 1.8626285571117132e-35 0.0 1.8626285571117132e-35 -0.11044433498499193" energy=-650.215940479 Minim_Constant_Volume=T Minim_Hydrostatic_Strain=F pbc="T T T"
Si       0.00000000       0.00000000       0.00000000       14       0.00000000      -0.00000000       0.00000000 
Si       1.85650655       1.85650655      -0.00000000       14      -0.00000000       0.00000000       0.00000000 
Si       1.85650655      -0.00000000       1.85650655       14      -0.00000000      -0.00000000      -0.00000000 
Si       0.00000000       1.85650655       1.85650655       14       0.00000000       0.00000000      -0.00000000 
4
Lattice="3.6783100218993146 0.0 0.0 0.0 3.6783100218993146 -3.0610530931302186e-34 0.0 -3.0610530931302186e-34 3.6783100218993146" Properties=species:S:1:pos:R:3:Z:I:1:forces:R:3 stress="-0.09357278314903023 3.7958807213005114e-35 3.1588942622869403e-69 3.7958807213005114e-35 -0.09357278314903023 5.314233009820718e-34 3.1588942622869403e-69 5.314233009820718e-34 -0.09357278314903023" energy=-650.071211681 Minim_Constant_Volume=T Minim_Hydrostatic_Strain=F pbc="T T T"
Si       0.00000000       0.00000000       0.00000000       14       0.00000000       0.00000000      -0.00000000 
Si       1.83915501       1.83915501      -0.00000000       14       0.00000000      -0.00000000      -0.00000000 
Si       1.83915501      -0.00000000       1.83915501       14      -0.00000000       0.00000000      -0.00000000 
Si       0.00000000       1.83915501       1.83915501       14      -0.00000000      -0.00000000       0.00000000 
4
Lattice="3.8775160238969706 0.0 0.0 0.0 3.8775160238969706 -3.226830350880278e-34 0.0 -3.226830350880278e-34 3.8775160238969706" Properties=species:S:1:pos:R:3:Z:I:1:forces:R:3 stress="0.05491420488773312 -1.1955563757155347e-34 -9.9493015001653e-69 -1.1955563757155347e-34 0.054914204887733124 -1.4944454696444183e-34 -9.9493015001653e-69 -1.4944454696444183e-34 0.05491420488773312" energy=-650.650152711 Minim_Constant_Volume=T Minim_Hydrostatic_Strain=F pbc="T T T"
Si       0.00000000       0.00000000       0.00000000       14      -0.00000000       0.00000000       0.00000000 
Si       1.93875801       1.93875801      -0.00000000       14      -0.00000000      -0.00000000      -0.00000000 
Si       1.93875801      -0.00000000       1.93875801       14       0.00000000       0.00000000       0.00000000 
Si       0.00000000       1.93875801       1.93875801       14       0.00000000      -0.00000000      -0.00000000 
4
Lattice="3.9087876648815847 0.0 0.0 0.0 3.9087876648815847 -3.252854300137764e-34 0.0 -3.252854300137764e-34 3.9087876648815847" Properties=species:S:1:pos:R:3:Z:I:1:forces:R:3 stress="0.10087712801724903 3.0252938820637955e-34 2.517619542720751e-68 3.0252938820637955e-34 0.10087712801724912 2.6891501173900403e-34 2.517619542720751e-68 2.6891501173900403e-34 0.10087712801724903" energy=-650.538093847 Minim_Constant_Volume=T Minim_Hydrostatic_Strain=F pbc="T T T"
Si       0.00000000       0.00000000       0.00000000       14       0.00000000       0.00000000       0.00000000 
Si       1.95439383       1.95439383      -0.00000000       14       0.00000000       0.00000000       0.00000000 
Si       1.95439383      -0.00000000       1.95439383       14       0.00000000       0.00000000       0.00000000 
Si       0.00000000       1.95439383       1.95439383       14       0.00000000       0.00000000       0.00000000 
4
Lattice="3.939566787773295 0.0 0.0 0.0 3.939566787773295 -3.2784683807265603e-34 0.0 -3.2784683807265603e-34 3.939566787773295" Properties=species:S:1:pos:R:3:Z:I:1:forces:R:3 stress="0.1357180321107645 0.0 0.0 0.0 0.1357180321107645 -2.282522965373378e-52 0.0 -2.282522965373378e-52 0.1357180321107645" energy=-650.368594293 Minim_Constant_Volume=T Minim_Hydrostatic_Strain=F pbc="T T T"
Si       0.00000000       0.00000000       0.00000000       14       0.00000000       0.00000000      -0.00000000 
Si       1.96978339       1.96978339      -0.00000000       14       0.00000000      -0.00000000       0.00000000 
Si       1.96978339      -0.00000000       1.96978339       14      -0.00000000       0.00000000       0.00000000 
Si       0.00000000       1.96978339       1.96978339       14      -0.00000000      -0.00000000       0.00000000 
4
Lattice="3.9698723386248758 0.0 0.0 0.0 3.9698723386248758 -3.3036883593637457e-34 0.0 -3.3036883593637457e-34 3.9698723386248758" Properties=species:S:1:pos:R:3:Z:I:1:forces:R:3 stress="0.1604182602594935 -2.932909383747149e-34 -2.4407380801344537e-68 -2.932909383747149e-34 0.16041826025949352 -2.2811517429144493e-34 -2.4407380801344537e-68 -2.2811517429144493e-34 0.16041826025949352" energy=-650.156935611 Minim_Constant_Volume=T Minim_Hydrostatic_Strain=F pbc="T T T"
Si       0.00000000       0.00000000       0.00000000       14       0.00000000      -0.00000000      -0.00000000 
Si       1.98493617       1.98493617      -0.00000000       14       0.00000000       0.00000000      -0.00000000 
Si       1.98493617      -0.00000000       1.98493617       14      -0.00000000      -0.00000000      -0.00000000 
Si       0.00000000       1.98493617       1.98493617       14      -0.00000000      -0.00000000      -0.00000000 
4
Lattice="3.999722123633153 0.0 0.0 0.0 3.999722123633153 -3.328529054189594e-34 0.0 -3.328529054189594e-34 3.999722123633153" Properties=species:S:1:pos:R:3:Z:I:1:forces:R:3 stress="0.1760412803814361 -5.457559746196295e-34 -4.541727054700782e-68 -5.457559746196295e-34 0.1760412803814361 -5.136526819949454e-34 -4.541727054700782e-68 -5.136526819949454e-34 0.1760412803814361" energy=-649.916668179 Minim_Constant_Volume=T Minim_Hydrostatic_Strain=F pbc="T T T"
Si       0.00000000       0.00000000       0.00000000       14       0.00000000      -0.00000000      -0.00000000 
Si       1.99986106       1.99986106      -0.00000000       14      -0.00000000       0.00000000      -0.00000000 
Si       1.99986106      -0.00000000       1.99986106       14      -0.00000000      -0.00000000       0.00000000 
Si       0.00000000       1.99986106       1.99986106       14       0.00000000       0.00000000      -0.00000000 
4
Lattice="4.02913290135751 0.0 0.0 0.0 4.02913290135751 -3.353004411510895e-34 0.0 -3.353004411510895e-34 4.02913290135751" Properties=species:S:1:pos:R:3:Z:I:1:forces:R:3 stress="0.1787437085658615 9.490897582221004e-35 7.898230771107895e-69 9.490897582221004e-35 0.1787437085658615 -6.327265054814002e-35 7.898230771107895e-69 -6.327265054814002e-35 0.1787437085658615" energy=-649.663277196 Minim_Constant_Volume=T Minim_Hydrostatic_Strain=F pbc="T T T"
Si       0.00000000       0.00000000       0.00000000       14       0.00000000      -0.00000000      -0.00000000 
Si       2.01456645       2.01456645      -0.00000000       14       0.00000000       0.00000000       0.00000000 
Si       2.01456645      -0.00000000       2.01456645       14      -0.00000000      -0.00000000      -0.00000000 
Si       0.00000000       2.01456645       2.01456645       14      -0.00000000       0.00000000       0.00000000 
