2
Lattice="3.2024501699504158 1.7654806933682659e-37 0.0 1.7654806933682659e-37 3.2024501699504158 0.0 0.0 0.0 3.2024501699504158" Properties=species:S:1:pos:R:3:Z:I:1:forces:R:3 stress="-1.7806828723035435e-05 -7.965459555662261e-58 0.0 -7.965459555662261e-58 -1.780682872303545e-05 0.0 0.0 0.0 -1.7806828723035452e-05" energy=-324.944192241 Minim_Constant_Volume=T Minim_Hydrostatic_Strain=F pbc="T T T"
Si       0.00000000       0.00000000       0.00000000       14       0.00000000       0.00000000      -0.00000000 
Si       1.60122508       1.60122508       1.60122508       14       0.00000000      -0.00000000       0.00000000 
2
Lattice="3.175537551602717 1.7506440197029935e-37 0.0 1.7506440197029935e-37 3.175537551602717 0.0 0.0 0.0 3.175537551602717" Properties=species:S:1:pos:R:3:Z:I:1:forces:R:3 stress="-0.05832013358568623 -8.148819442870003e-34 -1.0186024303587501e-34 -8.148819442870003e-34 -0.05832013358568627 5.615459506257396e-72 -1.0186024303587501e-34 5.615459506257396e-72 -0.05832013358568629" energy=-324.920165925 Minim_Constant_Volume=T Minim_Hydrostatic_Strain=F pbc="T T T"
Si       0.00000000       0.00000000       0.00000000       14       0.00000000      -0.00000000      -0.00000000 
Si       1.58776878       1.58776878       1.58776878       14      -0.00000000       0.00000000       0.00000000 
2
Lattice="3.148160865594935 1.7355515098963874e-37 0.0 1.7355515098963874e-37 3.148160865594935 0.0 0.0 0.0 3.148160865594935" Properties=species:S:1:pos:R:3:Z:I:1:forces:R:3 stress="-0.10914499039279482 2.507108660170667e-40 0.0 2.507108660170667e-40 -0.10914499039279481 0.0 0.0 0.0 -0.10914499039279481" energy=-324.850455284 Minim_Constant_Volume=T Minim_Hydrostatic_Strain=F pbc="T T T"
Si       0.00000000       0.00000000       0.00000000       14       0.00000000       0.00000000       0.00000000 
Si       1.57408043       1.57408043       1.57408043       14       0.00000000       0.00000000       0.00000000 
2
Lattice="3.1202995737616877 1.7201918414508175e-37 0.0 1.7201918414508175e-37 3.1202995737616877 0.0 0.0 0.0 3.1202995737616877" Properties=species:S:1:pos:R:3:Z:I:1:forces:R:3 stress="-0.1397706484912676 3.2105935600802354e-40 0.0 3.2105935600802354e-40 -0.1397706484912676 0.0 0.0 0.0 -0.1397706484912676" energy=-324.74649139 Minim_Constant_Volume=T Minim_Hydrostatic_Strain=F pbc="T T T"
Si       0.00000000       0.00000000       0.00000000       14       0.00000000       0.00000000       0.00000000 
Si       1.56014979       1.56014979       1.56014979       14       0.00000000       0.00000000       0.00000000 
2
Lattice="3.091931643815621 1.7045528681732475e-37 0.0 1.7045528681732475e-37 3.091931643815621 0.0 0.0 0.0 3.091931643815621" Properties=species:S:1:pos:R:3:Z:I:1:forces:R:3 stress="-0.14083436996696932 -1.354170446324262e-37 0.0 -1.354170446324262e-37 -0.14083436996696932 0.0 0.0 0.0 -0.14083436996696932" energy=-324.629088845 Minim_Constant_Volume=T Minim_Hydrostatic_Strain=F pbc="T T T"
Si       0.00000000       0.00000000       0.00000000       14       0.00000000       0.00000000       0.00000000 
Si       1.54596582       1.54596582       1.54596582       14       0.00000000       0.00000000       0.00000000 
2
Lattice="3.063033395686444 1.6886215354633872e-37 0.0 1.6886215354633872e-37 3.063033395686444 0.0 0.0 0.0 3.063033395686444" Properties=species:S:1:pos:R:3:Z:I:1:forces:R:3 stress="-0.1102139396904909 -2.7898453122632937e-37 0.0 -2.7898453122632937e-37 -0.1102139396904909 0.0 0.0 0.0 -0.1102139396904909" energy=-324.523970485 Minim_Constant_Volume=T Minim_Hydrostatic_Strain=F pbc="T T T"
Si       0.00000000       0.00000000       0.00000000       14       0.00000000       0.00000000       0.00000000 
Si       1.53151670       1.53151670       1.53151670       14       0.00000000       0.00000000       0.00000000 
2
Lattice="3.2289179005561373 1.7800721046008715e-37 0.0 1.7800721046008715e-37 3.2289179005561373 0.0 0.0 0.0 3.2289179005561373" Properties=species:S:1:pos:R:3:Z:I:1:forces:R:3 stress="0.05416606452178083 0.0 0.0 0.0 0.05416606452178083 0.0 0.0 0.0 0.05416606452178081" energy=-324.921362751 Minim_Constant_Volume=T Minim_Hydrostatic_Strain=F pbc="T T T"
Si       0.00000000       0.00000000       0.00000000       14       0.00000000       0.00000000       0.00000000 
Si       1.61445895       1.61445895       1.61445895       14       0.00000000       0.00000000       0.00000000 
2
Lattice="3.2549586856187105 1.7944281447664667e-37 0.0 1.7944281447664667e-37 3.2549586856187105 0.0 0.0 0.0 3.2549586856187105" Properties=species:S:1:pos:R:3:Z:I:1:forces:R:3 stress="0.096758506079588 0.0 0.0 0.0 0.096758506079588 0.0 0.0 0.0 0.096758506079588" energy=-324.858460906 Minim_Constant_Volume=T Minim_Hydrostatic_Strain=F pbc="T T T"
Si       0.00000000       0.00000000       0.00000000       14       0.00000000       0.00000000       0.00000000 
Si       1.62747934       1.62747934       1.62747934       14       0.00000000       0.00000000       0.00000000 
2
Lattice="3.280589336854184 1.8085580820061724e-37 0.0 1.8085580820061724e-37 3.280589336854184 0.0 0.0 0.0 3.280589336854184" Properties=species:S:1:pos:R:3:Z:I:1:forces:R:3 stress="0.12508607888538462 -5.710895274527578e-38 0.0 -5.710895274527578e-38 0.12508607888538462 0.0 0.0 0.0 0.12508607888538462" energy=-324.766407606 Minim_Constant_Volume=T Minim_Hydrostatic_Strain=F pbc="T T T"
Si       0.00000000       0.00000000       0.00000000       14       0.00000000       0.00000000      -0.00000000 
Si       1.64029467       1.64029467       1.64029467       14      -0.00000000      -0.00000000       0.00000000 
2
Lattice="3.305825631179678 1.8224706139861809e-37 0.0 1.8224706139861809e-37 3.305825631179678 0.0 0.0 0.0 3.305825631179678" Properties=species:S:1:pos:R:3:Z:I:1:forces:R:3 stress="0.1401472765696003 -3.2192448734703605e-40 0.0 -3.2192448734703605e-40 0.1401472765696003 0.0 0.0 0.0 0.1401472765696003" energy=-324.65669625 Minim_Constant_Volume=T Minim_Hydrostatic_Strain=F pbc="T T T"
Si       0.00000000       0.00000000       0.00000000       14       0.00000000       0.00000000       0.00000000 
Si       1.65291282       1.65291282       1.65291282       14       0.00000000       0.00000000       0.00000000 
2
Lattice="3.3306823963218406 1.8361739150928944e-37 0.0 1.8361739150928944e-37 3.3306823963218406 0.0 0.0 0.0 3.3306823963218406" Properties=species:S:1:pos:R:3:Z:I:1:forces:R:3 stress="0.14479615794906675 2.61012178719941e-54 0.0 2.61012178719941e-54 0.1447961579490668 0.0 0.0 0.0 0.14479615794906675" energy=-324.539114078 Minim_Constant_Volume=T Minim_Hydrostatic_Strain=F pbc="T T T"
Si       0.00000000       0.00000000       0.00000000       14       0.00000000       0.00000000       0.00000000 
Si       1.66534120       1.66534120       1.66534120       14       0.00000000       0.00000000       0.00000000 
2
Lattice="3.355173587609817 1.8496756787681684e-37 0.0 1.8496756787681684e-37 3.355173587609817 0.0 0.0 0.0 3.355173587609817" Properties=species:S:1:pos:R:3:Z:I:1:forces:R:3 stress="0.14217460099415846 1.305060893599705e-54 1.6880084084163615e-57 1.305060893599705e-54 0.1421746009941585 -9.305831776138213e-95 1.6880084084163615e-57 -9.305831776138213e-95 0.1421746009941585" energy=-324.420900453 Minim_Constant_Volume=T Minim_Hydrostatic_Strain=F pbc="T T T"
Si       0.00000000       0.00000000       0.00000000       14       0.00000000       0.00000000       0.00000000 
Si       1.67758679       1.67758679       1.67758679       14       0.00000000       0.00000000       0.00000000 
