2
Lattice="3.029484534165338 1.0084867498264965e-30 1.3253821199121782e-30 1.0084867498264965e-30 3.029484534165338 -1.8201064384468548e-16 1.3253821199121788e-30 -1.8201064384468548e-16 3.0294845341653374" Properties=species:S:1:pos:R:3:Z:I:1:forces:R:3 stress="1.6135824845293587e-05 7.722373891251565e-33 7.081165340467551e-49 7.722373891251565e-33 1.613582484529358e-05 6.942248200057815e-22 7.081165340467551e-49 6.942248200057815e-22 1.613582484529359e-05" energy=-11.935964265 Minim_Constant_Volume=T Minim_Hydrostatic_Strain=F pbc="T T T"
Ti       0.00000000       0.00000000       0.00000000       22       0.00000000       0.00000000      -0.00000000 
Ti       1.51474227       1.51474227       1.51474227       22      -0.00000000       0.00000000       0.00000000 
2
Lattice="3.0040254772771835 1.0000116705695374e-30 1.3142439284446706e-30 1.0000116705695374e-30 3.0040254772771835 -1.8048107032033404e-16 1.3142439284446711e-30 -1.8048107032033404e-16 3.004025477277183" Properties=species:S:1:pos:R:3:Z:I:1:forces:R:3 stress="-0.13522476578098946 1.3089704144940492e-32 1.4569409830890295e-32 1.3089704144940492e-32 -0.1352247657809895 -2.771232862494167e-17 1.4569409830890295e-32 -2.771232862494167e-17 -0.13522476578098946" energy=-11.8911146188 Minim_Constant_Volume=T Minim_Hydrostatic_Strain=F pbc="T T T"
Ti       0.00000000       0.00000000       0.00000000       22      -0.00000000       0.00000000       0.00000000 
Ti       1.50201274       1.50201274       1.50201274       22       0.00000000      -0.00000000      -0.00000000 
2
Lattice="2.9781274172119554 9.91390451306839e-31 1.3029136756033826e-30 9.91390451306839e-31 2.9781274172119554 -1.7892512159914367e-16 1.302913675603383e-30 -1.7892512159914367e-16 2.978127417211955" Properties=species:S:1:pos:R:3:Z:I:1:forces:R:3 stress="-0.2965526088271709 -1.5055528878668472e-32 -3.5345535290972985e-47 -1.5055528878668472e-32 -0.296552608827171 -6.3435748666516264e-18 -3.5345535290972985e-47 -6.3435748666516264e-18 -0.296552608827171" energy=-11.740723315 Minim_Constant_Volume=T Minim_Hydrostatic_Strain=F pbc="T T T"
Ti       0.00000000       0.00000000       0.00000000       22       0.00000000      -0.00000000      -0.00000000 
Ti       1.48906371       1.48906371       1.48906371       22      -0.00000000       0.00000000      -0.00000000 
2
Lattice="2.951770925078934 9.82616624344431e-31 1.291382861359983e-30 9.82616624344431e-31 2.951770925078934 -1.7734163039840702e-16 1.2913828613599834e-30 -1.7734163039840702e-16 2.9517709250789337" Properties=species:S:1:pos:R:3:Z:I:1:forces:R:3 stress="-0.4319227892260774 -1.4146700473311743e-32 -6.035925535279727e-32 -1.4146700473311743e-32 -0.43192278922607724 -1.4135087030147844e-16 -6.035925535279727e-32 -1.4135087030147844e-16 -0.43192278922607713" energy=-11.4871595822 Minim_Constant_Volume=T Minim_Hydrostatic_Strain=F pbc="T T T"
Ti       0.00000000       0.00000000       0.00000000       22       0.00000000       0.00000000       0.00000000 
Ti       1.47588546       1.47588546       1.47588546       22       0.00000000       0.00000000       0.00000000 
2
Lattice="2.924935158563565 9.736832514729158e-31 1.279642367321314e-30 9.736832514729158e-31 2.924935158563565 -1.7572934451727983e-16 1.2796423673213145e-30 -1.7572934451727983e-16 2.9249351585635646" Properties=species:S:1:pos:R:3:Z:I:1:forces:R:3 stress="-0.5587668913254041 1.2342406403230126e-31 1.2294381475591101e-31 1.2342406403230126e-31 -0.5587668913254044 -2.609710744660284e-16 1.2294381475591101e-31 -2.609710744660284e-16 -0.5587668913254041" energy=-11.1423226796 Minim_Constant_Volume=T Minim_Hydrostatic_Strain=F pbc="T T T"
Ti       0.00000000       0.00000000       0.00000000       22       0.00000000       0.00000000       0.00000000 
Ti       1.46246758       1.46246758       1.46246758       22      -0.00000000      -0.00000000      -0.00000000 
2
Lattice="2.8975977165657802 9.645828755779413e-31 1.2676823931344899e-30 9.645828755779413e-31 2.8975977165657802 -1.7408691810348914e-16 1.2676823931344904e-30 -1.7408691810348914e-16 2.89759771656578" Properties=species:S:1:pos:R:3:Z:I:1:forces:R:3 stress="-0.6619267718372829 -3.6701539929456544e-34 -1.6136612752567601e-46 -3.6701539929456544e-34 -0.6619267718372834 -3.425207174344377e-16 -1.6136612752567601e-46 -3.425207174344377e-16 -0.6619267718372832" energy=-10.7138304929 Minim_Constant_Volume=T Minim_Hydrostatic_Strain=F pbc="T T T"
Ti       0.00000000       0.00000000       0.00000000       22       0.00000000      -0.00000000       0.00000000 
Ti       1.44879886       1.44879886       1.44879886       22      -0.00000000       0.00000000      -0.00000000 
2
Lattice="3.0545227318793495 1.0168217290446933e-30 1.3363361879031937e-30 1.0168217290446933e-30 3.0545227318793495 -1.8351493225918083e-16 1.3363361879031942e-30 -1.8351493225918083e-16 3.054522731879349" Properties=species:S:1:pos:R:3:Z:I:1:forces:R:3 stress="0.09399853886487623 -1.8966244305765028e-47 5.636667946834356e-32 -1.8966244305765028e-47 0.09399853886487616 2.0776115220627868e-17 5.636667946834356e-32 2.0776115220627868e-17 0.09399853886487615" energy=-11.9006412359 Minim_Constant_Volume=T Minim_Hydrostatic_Strain=F pbc="T T T"
Ti       0.00000000       0.00000000       0.00000000       22       0.00000000       0.00000000      -0.00000000 
Ti       1.52726137       1.52726137       1.52726137       22       0.00000000      -0.00000000       0.00000000 
2
Lattice="3.079157043552593 1.0250222584197037e-30 1.3471135580662853e-30 1.0250222584197037e-30 3.079157043552593 -1.8499495530526417e-16 1.3471135580662858e-30 -1.8499495530526417e-16 3.0791570435525926" Properties=species:S:1:pos:R:3:Z:I:1:forces:R:3 stress="0.13723799497617553 1.0508658258605012e-32 6.663691305142335e-48 1.0508658258605012e-32 0.13723799497617553 3.53529672679769e-17 6.663691305142335e-48 3.53529672679769e-17 0.13723799497617561" energy=-11.8170342343 Minim_Constant_Volume=T Minim_Hydrostatic_Strain=F pbc="T T T"
Ti       0.00000000       0.00000000       0.00000000       22      -0.00000000      -0.00000000      -0.00000000 
Ti       1.53957852       1.53957852       1.53957852       22       0.00000000       0.00000000       0.00000000 
2
Lattice="3.1034033728934967 1.0330936321456527e-30 1.3577211881827367e-30 1.0330936321456527e-30 3.1034033728934967 -1.8645166847360653e-16 1.3577211881827372e-30 -1.8645166847360653e-16 3.103403372893496" Properties=species:S:1:pos:R:3:Z:I:1:forces:R:3 stress="0.11909023986567899 3.2281762969125087e-32 5.46050386626209e-32 3.2281762969125087e-32 0.11909023986567889 -2.1516428142714234e-17 5.46050386626209e-32 -2.1516428142714234e-17 0.11909023986567899" energy=-11.7240803493 Minim_Constant_Volume=T Minim_Hydrostatic_Strain=F pbc="T T T"
Ti       0.00000000       0.00000000       0.00000000       22       0.00000000      -0.00000000      -0.00000000 
Ti       1.55170169       1.55170169       1.55170169       22      -0.00000000      -0.00000000      -0.00000000 
2
Lattice="3.1272766447014737 1.0410408185471124e-30 1.368165607766748e-30 1.0410408185471124e-30 3.1272766447014737 -1.8788596844227965e-16 1.3681656077667486e-30 -1.8788596844227965e-16 3.1272766447014733" Properties=species:S:1:pos:R:3:Z:I:1:forces:R:3 stress="0.029551494089893986 -6.103296837357213e-32 -5.377452361230435e-32 -6.103296837357213e-32 0.029551494089894007 1.9964153068792227e-18 -5.377452361230435e-32 1.9964153068792227e-18 0.029551494089893993" energy=-11.6680461597 Minim_Constant_Volume=T Minim_Hydrostatic_Strain=F pbc="T T T"
Ti       0.00000000       0.00000000       0.00000000       22       0.00000000       0.00000000       0.00000000 
Ti       1.56363832       1.56363832       1.56363832       22       0.00000000       0.00000000      -0.00000000 
2
Lattice="3.1507908858516265 1.048868487038144e-30 1.3784529534957805e-30 1.048868487038144e-30 3.1507908858516265 -1.8929869794229595e-16 1.378452953495781e-30 -1.8929869794229595e-16 3.150790885851626" Properties=species:S:1:pos:R:3:Z:I:1:forces:R:3 stress="-0.02878382231889908 -1.986558145762413e-32 -6.62186048587472e-33 -1.986558145762413e-32 -0.028783822318899102 1.2186703594237805e-18 -6.62186048587472e-33 1.2186703594237805e-18 -0.028783822318899102" energy=-11.6711021831 Minim_Constant_Volume=T Minim_Hydrostatic_Strain=F pbc="T T T"
Ti       0.00000000       0.00000000       0.00000000       22      -0.00000000       0.00000000      -0.00000000 
Ti       1.57539544       1.57539544       1.57539544       22       0.00000000      -0.00000000      -0.00000000 
2
Lattice="3.173959297940099 1.0565810323052489e-30 1.3885890009924806e-30 1.0565810323052489e-30 3.173959297940099 -1.9069065012212235e-16 1.3885890009924811e-30 -1.9069065012212235e-16 3.1739592979400983" Properties=species:S:1:pos:R:3:Z:I:1:forces:R:3 stress="-0.07912469170516152 -5.220432301441049e-32 5.179647674086033e-32 -5.220432301441049e-32 -0.07912469170516158 -2.5221987727354664e-17 5.179647674086033e-32 -2.5221987727354664e-17 -0.07912469170516157" energy=-11.7083979055 Minim_Constant_Volume=T Minim_Hydrostatic_Strain=F pbc="T T T"
Ti       0.00000000       0.00000000       0.00000000       22       0.00000000      -0.00000000       0.00000000 
Ti       1.58697965       1.58697965       1.58697965       22       0.00000000      -0.00000000       0.00000000 
