2
Lattice="3.1804702909558613 7.937336337605824e-27 0.0 7.937336337605824e-27 3.1804702909558613 0.0 0.0 0.0 3.1804702909558613" Properties=species:S:1:pos:R:3:Z:I:1:forces:R:3 stress="-0.00023555110464510836 -1.7036344878206778e-26 0.0 -1.7036344878206778e-26 -0.00023555110464510833 0.0 0.0 0.0 -0.00023555110464510833" energy=-22.3907079037 Minim_Constant_Volume=T Minim_Hydrostatic_Strain=F pbc="T T T"
W       0.00000000      -0.00000000      -0.00000000       74       0.00000000       0.00000000       0.00000000 
W       1.59023515       1.59023515       1.59023515       74       0.00000000       0.00000000       0.00000000 
2
Lattice="3.1537423862066003 7.870632878624412e-27 0.0 7.870632878624412e-27 3.1537423862066003 0.0 0.0 0.0 3.1537423862066003" Properties=species:S:1:pos:R:3:Z:I:1:forces:R:3 stress="-0.04883831573896251 1.7326333894777842e-27 0.0 1.7326333894777842e-27 -0.0488383157389625 0.0 0.0 0.0 -0.04883831573896251" energy=-22.3713245395 Minim_Constant_Volume=T Minim_Hydrostatic_Strain=F pbc="T T T"
W       0.00000000      -0.00000000      -0.00000000       74      -0.00000000       0.00000000      -0.00000000 
W       1.57687119       1.57687119       1.57687119       74       0.00000000       0.00000000      -0.00000000 
2
Lattice="3.12655359890568 7.802779218732443e-27 0.0 7.802779218732443e-27 3.12655359890568 0.0 0.0 0.0 3.12655359890568" Properties=species:S:1:pos:R:3:Z:I:1:forces:R:3 stress="-0.1035483843247322 1.4103189454021195e-26 -1.0577392090515898e-26 1.4103189454021195e-26 -0.10354838432473226 2.6397454123655393e-53 -1.0577392090515898e-26 2.6397454123655393e-53 -0.10354838432473226" energy=-22.3105017635 Minim_Constant_Volume=T Minim_Hydrostatic_Strain=F pbc="T T T"
W       0.00000000      -0.00000000      -0.00000000       74       0.00000000       0.00000000       0.00000000 
W       1.56327680       1.56327680       1.56327680       74       0.00000000       0.00000000       0.00000000 
2
Lattice="3.0988835318505332 7.733724453679191e-27 0.0 7.733724453679191e-27 3.0988835318505332 0.0 0.0 0.0 3.0988835318505332" Properties=species:S:1:pos:R:3:Z:I:1:forces:R:3 stress="-0.16602077251169323 5.742467946315266e-26 -5.742467946315266e-26 5.742467946315266e-26 -0.16602077251169323 1.4331182286920917e-52 -5.742467946315266e-26 1.4331182286920917e-52 -0.16602077251169317" energy=-22.2026900408 Minim_Constant_Volume=T Minim_Hydrostatic_Strain=F pbc="T T T"
W       0.00000000      -0.00000000      -0.00000000       74       0.00000000       0.00000000       0.00000000 
W       1.54944177       1.54944177       1.54944177       74       0.00000000       0.00000000       0.00000000 
2
Lattice="3.0707103039714627 7.66341397600295e-27 0.0 7.66341397600295e-27 3.0707103039714627 0.0 0.0 0.0 3.0707103039714627" Properties=species:S:1:pos:R:3:Z:I:1:forces:R:3 stress="-0.2390611427009096 7.31040450328406e-27 -7.31040450328406e-27 7.31040450328406e-27 -0.23906114270090983 1.8244201013767342e-53 -7.31040450328406e-27 1.8244201013767342e-53 -0.23906114270090983" energy=-22.0406174553 Minim_Constant_Volume=T Minim_Hydrostatic_Strain=F pbc="T T T"
W       0.00000000      -0.00000000      -0.00000000       74       0.00000000      -0.00000000       0.00000000 
W       1.53535515       1.53535515       1.53535515       74      -0.00000000       0.00000000      -0.00000000 
2
Lattice="3.04201039772532 7.591789094179286e-27 0.0 7.591789094179286e-27 3.04201039772532 0.0 0.0 0.0 3.04201039772532" Properties=species:S:1:pos:R:3:Z:I:1:forces:R:3 stress="-0.32686078548179504 -4.469397306238138e-26 -4.5043144726931234e-26 -4.469397306238138e-26 -0.3268607854817949 1.1241186261597161e-52 -4.5043144726931234e-26 1.1241186261597161e-52 -0.3268607854817949" energy=-21.8142014486 Minim_Constant_Volume=T Minim_Hydrostatic_Strain=F pbc="T T T"
W       0.00000000      -0.00000000      -0.00000000       74       0.00000000       0.00000000       0.00000000 
W       1.52100520       1.52100520       1.52100520       74       0.00000000       0.00000000       0.00000000 
2
Lattice="3.2067563614310264 8.002937133484565e-27 0.0 8.002937133484565e-27 3.2067563614310264 0.0 0.0 0.0 3.2067563614310264" Properties=species:S:1:pos:R:3:Z:I:1:forces:R:3 stress="0.04407052039380284 1.4076881855360638e-25 8.043932488777506e-26 1.4076881855360638e-25 0.04407052039380284 -2.0074829128881122e-52 8.043932488777506e-26 -2.0074829128881122e-52 0.04407052039380284" energy=-22.3729343949 Minim_Constant_Volume=T Minim_Hydrostatic_Strain=F pbc="T T T"
W       0.00000000      -0.00000000      -0.00000000       74       0.00000000      -0.00000000       0.00000000 
W       1.60337818       1.60337818       1.60337818       74      -0.00000000       0.00000000       0.00000000 
2
Lattice="3.2326184166854146 8.067479736356712e-27 0.0 8.067479736356712e-27 3.2326184166854146 0.0 0.0 0.0 3.2326184166854146" Properties=species:S:1:pos:R:3:Z:I:1:forces:R:3 stress="0.08396394729926965 -6.596449092438384e-27 0.0 -6.596449092438384e-27 0.08396394729926965 0.0 0.0 0.0 0.08396394729926965" energy=-22.3210345431 Minim_Constant_Volume=T Minim_Hydrostatic_Strain=F pbc="T T T"
W       0.00000000      -0.00000000      -0.00000000       74       0.00000000       0.00000000       0.00000000 
W       1.61630921       1.61630921       1.61630921       74       0.00000000       0.00000000       0.00000000 
2
Lattice="3.2580731530485836 8.13100581439432e-27 0.0 8.13100581439432e-27 3.2580731530485836 0.0 0.0 0.0 3.2580731530485836" Properties=species:S:1:pos:R:3:Z:I:1:forces:R:3 stress="0.11753405403596064 -6.493778012887493e-26 0.0 -6.493778012887493e-26 0.11753405403596064 0.0 0.0 0.0 0.11753405403596064" energy=-22.2395655208 Minim_Constant_Volume=T Minim_Hydrostatic_Strain=F pbc="T T T"
W       0.00000000      -0.00000000      -0.00000000       74       0.00000000       0.00000000       0.00000000 
W       1.62903658       1.62903658       1.62903658       74       0.00000000      -0.00000000       0.00000000 
2
Lattice="3.283136239153462 8.19355447099976e-27 0.0 8.19355447099976e-27 3.283136239153462 0.0 0.0 0.0 3.283136239153462" Properties=species:S:1:pos:R:3:Z:I:1:forces:R:3 stress="0.14464027907176924 -5.116008744095935e-26 0.0 -5.116008744095935e-26 0.14464027907176924 0.0 0.0 0.0 0.14464027907176924" energy=-22.1337062382 Minim_Constant_Volume=T Minim_Hydrostatic_Strain=F pbc="T T T"
W       0.00000000      -0.00000000      -0.00000000       74       0.00000000      -0.00000000      -0.00000000 
W       1.64156812       1.64156812       1.64156812       74      -0.00000000       0.00000000      -0.00000000 
2
Lattice="3.307822400957235 8.255162456987961e-27 0.0 8.255162456987961e-27 3.307822400957235 0.0 0.0 0.0 3.307822400957235" Properties=species:S:1:pos:R:3:Z:I:1:forces:R:3 stress="0.16552587699440716 -1.2599831248032383e-26 1.2599831248032381e-26 -1.2599831248032383e-26 0.16552587699440716 -3.1444751644780166e-53 1.2599831248032381e-26 -3.1444751644780166e-53 0.1655258769944071" energy=-22.0085287266 Minim_Constant_Volume=T Minim_Hydrostatic_Strain=F pbc="T T T"
W       0.00000000      -0.00000000      -0.00000000       74       0.00000000      -0.00000000       0.00000000 
W       1.65391120       1.65391120       1.65391120       74      -0.00000000       0.00000000      -0.00000000 
2
Lattice="3.3321454980072454 8.315864360919326e-27 0.0 8.315864360919326e-27 3.3321454980072454 0.0 0.0 0.0 3.3321454980072454" Properties=species:S:1:pos:R:3:Z:I:1:forces:R:3 stress="0.1813626565095464 1.2416556906522813e-26 -3.724967071956844e-26 1.2416556906522813e-26 0.1813626565095464 9.296208985414653e-53 -3.724967071956844e-26 9.296208985414653e-53 0.1813626565095464" energy=-21.868918254 Minim_Constant_Volume=T Minim_Hydrostatic_Strain=F pbc="T T T"
W       0.00000000      -0.00000000      -0.00000000       74       0.00000000       0.00000000       0.00000000 
W       1.66607275       1.66607275       1.66607275       74      -0.00000000       0.00000000       0.00000000 
