1
Lattice="2.649549091028842 2.2120209663034624e-17 -2.0619508322492144e-32 1.324774545514421 2.2945768214049456 7.754595297925438e-33 -2.2134422590362772e-32 2.2130274853473842e-32 2.4780509079978343" Properties=species:S:1:pos:R:3:Z:I:1:forces:R:3 stress="1.1415634532906922e-05 -1.783301466869532e-21 -1.251367952016189e-33 -1.783301466869532e-21 1.141563453290692e-05 7.225264425579576e-34 -1.251367952016189e-33 7.225264425579576e-34 1.8423978249583904e-05" energy=-162.834144601 Minim_Constant_Volume=T Minim_Hydrostatic_Strain=F pbc="T T T"
Si       0.00000000       0.00000000       0.00000000       14       0.00000000       0.00000000       0.00000000 
1
Lattice="2.6247599355947586 1.9295424104363922e-17 3.505579278689359e-32 1.3123799677973793 2.273108783060668 7.762873686512969e-33 3.00189175122008e-32 -8.004587920148161e-33 2.461945322881883" Properties=species:S:1:pos:R:3:Z:I:1:forces:R:3 stress="-0.019792165741277505 -1.1065340502465097e-17 4.128219426423275e-32 -1.1065340502465097e-17 -0.019792165741277512 2.310122987711497e-32 4.128219426423275e-32 2.310122987711497e-32 -0.019803019419462987" energy=-162.830299502 Minim_Constant_Volume=T Minim_Hydrostatic_Strain=F pbc="T T T"
Si       0.00000000       0.00000000       0.00000000       14       0.00000000       0.00000000       0.00000000 
1
Lattice="2.6017440657881843 3.2861595911346945e-17 -1.8072580896438116e-31 1.3008720328940921 2.2531764551179796 7.825998437297867e-33 -1.7236724350228975e-31 1.0889967941552623e-31 2.44145428029131" Properties=species:S:1:pos:R:3:Z:I:1:forces:R:3 stress="-0.0417910583596966 4.3324043226788345e-18 -1.355002957828812e-32 4.3324043226788345e-18 -0.04179105835969659 1.993190767157297e-32 -1.355002957828812e-32 1.993190767157297e-32 -0.041768557582608085" energy=-162.818610218 Minim_Constant_Volume=T Minim_Hydrostatic_Strain=F pbc="T T T"
Si       0.00000000       0.00000000       0.00000000       14       0.00000000       0.00000000       0.00000000 
1
Lattice="2.5789123267869387 5.2199982609270806e-17 -1.5710966760993147e-31 1.2894561633934694 2.2334035891303254 1.9674129061369565e-32 -1.5021957827811032e-31 1.0894485758173658e-31 2.4194838889870742" Properties=species:S:1:pos:R:3:Z:I:1:forces:R:3 stress="-0.06161676654801275 8.347253688045842e-18 -7.129735436510855e-33 8.347253688045842e-18 -0.06161676654801276 5.284822882156577e-32 -7.129735436510855e-33 5.284822882156577e-32 -0.06161819446888186" energy=-162.799113423 Minim_Constant_Volume=T Minim_Hydrostatic_Strain=F pbc="T T T"
Si       0.00000000       0.00000000       0.00000000       14       0.00000000       0.00000000       0.00000000 
1
Lattice="2.55400950647727 -2.4388822208221687e-17 -2.2608830183445073e-32 1.277004753238635 2.2118371141162734 1.0838273784635106e-31 -2.375652948568203e-32 1.319860856740123e-31 2.4002210071689425" Properties=species:S:1:pos:R:3:Z:I:1:forces:R:3 stress="-0.09069411562210627 3.719850772557747e-17 -8.296450586377551e-32 3.719850772557747e-17 -0.09069411562210637 4.6360827381678513e-32 -8.296450586377551e-32 4.6360827381678513e-32 -0.09069369356864826" energy=-162.771089173 Minim_Constant_Volume=T Minim_Hydrostatic_Strain=F pbc="T T T"
Si       0.00000000       0.00000000       0.00000000       14       0.00000000       0.00000000       0.00000000 
1
Lattice="2.5274494432802275 6.6979651482335e-18 -5.943459779076277e-32 1.2637247216401137 2.188835424661514 9.892406278367445e-32 -5.827161535470378e-32 1.4127061318349595e-31 2.382844993839199" Properties=species:S:1:pos:R:3:Z:I:1:forces:R:3 stress="-0.1248501133799428 2.9261432148993315e-18 -3.4089417805884063e-34 2.9261432148993315e-18 -0.12485011337994294 -1.5653807281415214e-33 -3.4089417805884063e-34 -1.5653807281415214e-33 -0.12485011892883022" energy=-162.730478238 Minim_Constant_Volume=T Minim_Hydrostatic_Strain=F pbc="T T T"
Si       0.00000000       0.00000000       0.00000000       14       0.00000000       0.00000000       0.00000000 
1
Lattice="2.6742801181930345 3.690249260933798e-17 -2.1151975318419118e-32 1.3371400590965172 2.315994519190819 8.36225489877921e-33 -2.272088128489813e-32 2.3161090716323567e-32 2.4932324643741373" Properties=species:S:1:pos:R:3:Z:I:1:forces:R:3 stress="0.018883406893723326 2.5253301252358344e-18 2.4697832573373395e-34 2.5253301252358344e-18 0.018883406893723337 6.403993403673498e-35 2.4697832573373395e-34 6.403993403673498e-35 0.018953687039961732" energy=-162.830158009 Minim_Constant_Volume=T Minim_Hydrostatic_Strain=F pbc="T T T"
Si       0.00000000       0.00000000       0.00000000       14       0.00000000       0.00000000       0.00000000 
1
Lattice="2.6983386989305806 4.755125871931346e-17 -9.377835763155885e-33 1.3491693494652903 2.3368298612885336 3.02467309416866e-31 -1.182587850615706e-32 3.335176114735244e-31 2.508704045230565" Properties=species:S:1:pos:R:3:Z:I:1:forces:R:3 stress="0.029418722966366134 6.545259240371371e-18 -3.590520834776967e-33 6.545259240371371e-18 0.029418722966366124 3.2698350851803966e-33 -3.590520834776967e-33 3.2698350851803966e-33 0.029523293807475773" energy=-162.820902824 Minim_Constant_Volume=T Minim_Hydrostatic_Strain=F pbc="T T T"
Si       0.00000000       0.00000000       0.00000000       14       0.00000000       0.00000000       0.00000000 
1
Lattice="2.7223431311379724 9.557400028422975e-17 2.9643785265610335e-34 1.3611715655689862 2.3576183093835565 3.0029934032569417e-31 -2.8858376902159405e-33 3.2704064124765917e-31 2.5233387916025447" Properties=species:S:1:pos:R:3:Z:I:1:forces:R:3 stress="0.037888630873998484 4.294991632099284e-18 1.5836530063279932e-32 4.294991632099284e-18 0.03788863087399844 -5.189667541938863e-32 1.5836530063279932e-32 -5.189667541938863e-32 0.03798786483635051" energy=-162.808159953 Minim_Constant_Volume=T Minim_Hydrostatic_Strain=F pbc="T T T"
Si       0.00000000       0.00000000       0.00000000       14       0.00000000       0.00000000       0.00000000 
1
Lattice="2.7465819158208507 1.423089529748498e-16 1.309415716491656e-32 1.3732909579104253 2.37860971267579 2.9748829936241137e-31 8.949219862845018e-33 3.1840106604361704e-31 2.536645965539911" Properties=species:S:1:pos:R:3:Z:I:1:forces:R:3 stress="0.04491868315508655 4.1513045146750274e-18 -4.047646107999811e-32 4.1513045146750274e-18 0.04491868315508658 -1.862957245810383e-32 -4.047646107999811e-32 -1.862957245810383e-32 0.045026734967225736" energy=-162.792535766 Minim_Constant_Volume=T Minim_Hydrostatic_Strain=F pbc="T T T"
Si       0.00000000       0.00000000       0.00000000       14       0.00000000       0.00000000       0.00000000 
1
Lattice="2.7706526261522466 1.2227905815220703e-16 2.8817609632432986e-32 1.3853263130761233 2.3994555593099154 2.9180205110120864e-31 2.3488398842631868e-32 3.051815263046963e-31 2.549415041565468" Properties=species:S:1:pos:R:3:Z:I:1:forces:R:3 stress="0.05154531892334404 -3.39797292416538e-17 -6.643024192412819e-33 -3.39797292416538e-17 0.05154531892334399 5.458511331915785e-33 -6.643024192412819e-33 5.458511331915785e-33 0.05163930154434984" energy=-162.774347746 Minim_Constant_Volume=T Minim_Hydrostatic_Strain=F pbc="T T T"
Si       0.00000000       0.00000000       0.00000000       14       0.00000000       0.00000000       0.00000000 
1
Lattice="2.793954804116835 9.5901671604564e-17 -1.843612606352867e-31 1.3969774020584176 2.4196358373907554 1.2399346691825012e-30 -1.7260955753758152e-31 1.426842123786725e-30 2.5627829189958473" Properties=species:S:1:pos:R:3:Z:I:1:forces:R:3 stress="0.05835371445575378 3.326040451663619e-18 -2.1970753674304562e-32 3.326040451663619e-18 0.05835371445575371 2.0583989726932403e-32 -2.1970753674304562e-32 2.0583989726932403e-32 0.0584195698726103" energy=-162.753682713 Minim_Constant_Volume=T Minim_Hydrostatic_Strain=F pbc="T T T"
Si       0.00000000       0.00000000       0.00000000       14       0.00000000       0.00000000       0.00000000 
