4
Lattice="1.9137633026525374 -3.3147352754704924 6.498554267042793e-20 1.9137633026525374 3.3147352754704924 -6.498554264428016e-20 4.270498763593378e-29 -1.2426229116523928e-19 6.163188831959172" Properties=species:S:1:pos:R:3:Z:I:1:forces:R:3 cutoff=-1.0 stress="7.317685787554169e-06 -5.762481503059803e-23 -6.848680220032063e-29 -5.762481503059803e-23 7.317685780421422e-06 1.3180316909424034e-29 -6.848680220032063e-29 1.3180316909424034e-29 5.556057033381096e-07" Minim_Constant_Volume=T nneightol=1.2 pbc="T T T" energy=-652.639418161 Minim_Hydrostatic_Strain=F
Si       1.91376330       1.10491176       0.38257823       14       0.00000000      -0.00000000       0.00065930 
Si       1.91376330      -1.10491176       3.46417264       14      -0.00000000      -0.00000000       0.00065930 
Si       1.91376330       1.10491176       2.69901619       14       0.00000000       0.00000000      -0.00065930 
Si       1.91376330      -1.10491176      -0.38257823       14      -0.00000000       0.00000000      -0.00065930 
4
Lattice="1.8967906838474389 -3.2853378372316913 5.965638517829702e-20 1.8967906838474389 3.2853378372316913 -5.965638516894805e-20 1.563181559186437e-29 -1.1415631842642433e-19 6.117124889712115" Properties=species:S:1:pos:R:3:Z:I:1:forces:R:3 cutoff=-1.0 stress="-0.017320793241865858 6.072603895491659e-18 1.1417407351574767e-29 6.072603895491659e-18 -0.017320793226211682 -6.377593133178502e-22 1.1417407351574767e-29 -6.377593133178502e-22 -0.017321092202006467" Minim_Constant_Volume=T nneightol=1.2 pbc="T T T" energy=-652.622754042 Minim_Hydrostatic_Strain=F
Si       1.89679068       1.09511261       0.37960396       14      -0.00000000       0.00000000      -0.00000701 
Si       1.89679068      -1.09511261       3.43816640       14       0.00000000       0.00000000      -0.00000701 
Si       1.89679068       1.09511261       2.67895849       14       0.00000000      -0.00000000       0.00000701 
Si       1.89679068      -1.09511261      -0.37960396       14       0.00000000      -0.00000000       0.00000701 
4
Lattice="1.8782536302964445 -3.253230718423686 1.2925208935359725e-17 1.8782536302964445 3.253230718423686 -1.2925208935321607e-17 6.199795150881999e-29 -2.405470697368966e-17 6.078480896799169" Properties=species:S:1:pos:R:3:Z:I:1:forces:R:3 cutoff=-1.0 stress="-0.03652497285758037 -1.307746806873756e-17 -9.591682201368397e-29 -1.307746806873756e-17 -0.03652497282952221 -2.896408290114222e-19 -9.591682201368397e-29 -2.896408290114222e-19 -0.0365208054157443" Minim_Constant_Volume=T nneightol=1.2 pbc="T T T" energy=-652.570504466 Minim_Hydrostatic_Strain=F
Si       1.87825363       1.08441024       0.37848187       14       0.00000000      -0.00000000       0.00003201 
Si       1.87825363      -1.08441024       3.41772231       14       0.00000000      -0.00000000       0.00003201 
Si       1.87825363       1.08441024       2.66075858       14      -0.00000000       0.00000000      -0.00003201 
Si       1.87825363      -1.08441024      -0.37848187       14      -0.00000000       0.00000000      -0.00003201 
4
Lattice="1.858798904070097 -3.2195341438540988 -3.0438589448922506e-17 1.858798904070097 3.2195341438540988 3.043858944971601e-17 1.2831373849148413e-27 5.709689312018346e-17 6.0430420576903945" Properties=species:S:1:pos:R:3:Z:I:1:forces:R:3 cutoff=-1.0 stress="-0.0591996319294037 6.453424727246353e-18 -1.4973834077809503e-28 6.453424727246353e-18 -0.059199631894417785 1.1189906503457139e-18 -1.4973834077809503e-28 1.1189906503457139e-18 -0.05919506972065021" Minim_Constant_Volume=T nneightol=1.2 pbc="T T T" energy=-652.477482298 Minim_Hydrostatic_Strain=F
Si       1.85879890       1.07317805       0.37870375       14       0.00000000       0.00000000       0.00001686 
Si       1.85879890      -1.07317805       3.40022478       14       0.00000000       0.00000000       0.00001686 
Si       1.85879890       1.07317805       2.64281728       14      -0.00000000      -0.00000000      -0.00001686 
Si       1.85879890      -1.07317805      -0.37870375       14       0.00000000      -0.00000000      -0.00001686 
4
Lattice="1.837511669027642 -3.182663570891529 -2.032717101492319e-17 1.837511669027642 3.1826635708915285 2.0327171016104054e-17 1.9029941818637956e-27 3.772967782741022e-17 6.0166806832631785" Properties=species:S:1:pos:R:3:Z:I:1:forces:R:3 cutoff=-1.0 stress="-0.08515772754330568 1.5716488657657138e-17 -6.874185081662235e-29 1.5716488657657138e-17 -0.08515772750932635 1.0778971303819713e-18 -6.874185081662235e-29 1.0778971303819713e-18 -0.08515728020743293" Minim_Constant_Volume=T nneightol=1.2 pbc="T T T" energy=-652.336901478 Minim_Hydrostatic_Strain=F
Si       1.83751167       1.06088786       0.38163604       14       0.00000000       0.00000000       0.00000630 
Si       1.83751167      -1.06088786       3.38997638       14       0.00000000       0.00000000       0.00000630 
Si       1.83751167       1.06088786       2.62670430       14       0.00000000      -0.00000000      -0.00000630 
Si       1.83751167      -1.06088786      -0.38163604       14      -0.00000000      -0.00000000      -0.00000630 
4
Lattice="1.8114066692260475 -3.137448384543453 -8.902457807498255e-18 1.811406669226047 3.1374483845434527 8.902457810287593e-18 4.504920804312692e-27 1.5588711370600552e-17 6.019039677488813" Properties=species:S:1:pos:R:3:Z:I:1:forces:R:3 cutoff=-1.0 stress="-0.11438783545844738 3.564627188060947e-17 -3.868557321103093e-28 3.564627188060947e-17 -0.11438783543840761 6.207076407839562e-19 -3.868557321103093e-28 6.207076407839562e-19 -0.11434589282269084" Minim_Constant_Volume=T nneightol=1.2 pbc="T T T" energy=-652.141652246 Minim_Hydrostatic_Strain=F
Si       1.81140667       1.04581613       0.39196117       14       0.00000000       0.00000000       0.00013053 
Si       1.81140667      -1.04581613       3.40148100       14       0.00000000       0.00000000       0.00013053 
Si       1.81140667       1.04581613       2.61755868       14      -0.00000000      -0.00000000      -0.00013053 
Si       1.81140667      -1.04581613      -0.39196117       14      -0.00000000      -0.00000000      -0.00013053 
4
Lattice="1.9291091296776097 -3.341315027693986 2.4509190122775945e-17 1.9291091296776097 3.341315027693986 -2.4509190122842466e-17 -1.0655040547590677e-28 -4.557881403653654e-17 6.21716136979424" Properties=species:S:1:pos:R:3:Z:I:1:forces:R:3 cutoff=-1.0 stress="0.015880297661914164 3.3973804617770864e-18 4.470878978222487e-30 3.3973804617770864e-18 0.015880297645304506 2.3295574846286934e-19 4.470878978222487e-30 2.3295574846286934e-19 0.015887139571289" Minim_Constant_Volume=T nneightol=1.2 pbc="T T T" energy=-652.623680051 Minim_Hydrostatic_Strain=F
Si       1.92910913       1.11377168       0.38733912       14      -0.00000000      -0.00000000       0.00017642 
Si       1.92910913      -1.11377168       3.49591980       14       0.00000000      -0.00000000       0.00017642 
Si       1.92910913       1.11377168       2.72124157       14       0.00000000       0.00000000      -0.00017642 
Si       1.92910913      -1.11377168      -0.38733912       14      -0.00000000       0.00000000      -0.00017642 
4
Lattice="1.9431565840170784 -3.3656459325950454 2.55084443668163e-17 1.9431565840170784 3.365645932595046 -2.5508444367067985e-17 -4.0474509266304675e-28 -4.73322769743513e-17 6.277038389555064" Properties=species:S:1:pos:R:3:Z:I:1:forces:R:3 cutoff=-1.0 stress="0.03059264140932315 7.646617578952845e-18 -8.32311539041872e-30 7.646617578952845e-18 0.03059264137268294 4.626298544041818e-19 -8.32311539041872e-30 4.626298544041818e-19 0.030603349604559408" Minim_Constant_Volume=T nneightol=1.2 pbc="T T T" energy=-652.578085717 Minim_Hydrostatic_Strain=F
Si       1.94315658       1.12188198       0.39326486       14      -0.00000000      -0.00000000       0.00031443 
Si       1.94315658      -1.12188198       3.53178405       14      -0.00000000      -0.00000000       0.00031443 
Si       1.94315658       1.12188198       2.74525434       14       0.00000000       0.00000000      -0.00031443 
Si       1.94315658      -1.12188198      -0.39326486       14       0.00000000       0.00000000      -0.00031443 
4
Lattice="1.956141267737274 -3.3881360649649284 2.780479799539455e-17 1.956141267737274 3.388136064964929 -2.780479799549393e-17 -1.5728856608504092e-28 -5.1446910564838366e-17 6.341439711966818" Properties=species:S:1:pos:R:3:Z:I:1:forces:R:3 cutoff=-1.0 stress="0.044387478228488216 1.6571551558467643e-17 -1.0111709777567672e-29 1.6571551558467643e-17 0.04438747816398553 7.244392319147271e-19 -1.0111709777567672e-29 7.244392319147271e-19 0.044395439196514425" Minim_Constant_Volume=T nneightol=1.2 pbc="T T T" energy=-652.504676125 Minim_Hydrostatic_Strain=F
Si       1.95614127       1.12937869       0.40001272       14       0.00000000      -0.00000000       0.00029052 
Si       1.95614127      -1.12937869       3.57073257       14      -0.00000000      -0.00000000       0.00029052 
Si       1.95614127       1.12937869       2.77070714       14      -0.00000000       0.00000000      -0.00029052 
Si       1.95614127      -1.12937869      -0.40001272       14       0.00000000       0.00000000      -0.00029052 
4
Lattice="1.96762110439548 -3.4080197262269616 3.342895609265582e-17 1.96762110439548 3.408019726226962 -3.3428956092959585e-17 -4.8739877856810195e-28 -6.166867074990653e-17 6.413376220767774" Properties=species:S:1:pos:R:3:Z:I:1:forces:R:3 cutoff=-1.0 stress="0.057116423777689974 1.60741010531778e-17 -6.67278501871779e-29 1.60741010531778e-17 0.057116423664758206 1.1094760724665056e-18 -6.67278501871779e-29 1.1094760724665056e-18 0.05711802438306912" Minim_Constant_Volume=T nneightol=1.2 pbc="T T T" energy=-652.405222833 Minim_Hydrostatic_Strain=F
Si       1.96762110       1.13600658       0.40812918       14      -0.00000000      -0.00000000       0.00012073 
Si       1.96762110      -1.13600658       3.61481728       14      -0.00000000      -0.00000000       0.00012073 
Si       1.96762110       1.13600658       2.79855894       14       0.00000000       0.00000000      -0.00012073 
Si       1.96762110      -1.13600658      -0.40812918       14       0.00000000       0.00000000      -0.00012073 
4
Lattice="1.976134679082647 -3.422765671817166 4.7357446641319824e-17 1.9761346790826466 3.4227656718171664 -4.7357446641340273e-17 -2.0513437343301962e-29 -8.727002944468355e-17 6.502584145943958" Properties=species:S:1:pos:R:3:Z:I:1:forces:R:3 cutoff=-1.0 stress="0.06784048026398073 -1.809553798135459e-17 -3.564121283343918e-30 -1.809553798135459e-17 0.06784048006390583 1.849194263194116e-18 -3.564121283343918e-30 1.849194263194116e-18 0.06784605359527755" Minim_Constant_Volume=T nneightol=1.2 pbc="T T T" energy=-652.283185305 Minim_Hydrostatic_Strain=F
Si       1.97613468       1.14092189       0.41889901       14      -0.00000000      -0.00000000       0.00007938 
Si       1.97613468      -1.14092189       3.67019108       14       0.00000000      -0.00000000       0.00007938 
Si       1.97613468       1.14092189       2.83239306       14      -0.00000000       0.00000000      -0.00007938 
Si       1.97613468      -1.14092189      -0.41889901       14       0.00000000       0.00000000      -0.00007938 
4
Lattice="1.9856011049114446 -3.4391620045944693 6.835104570072177e-17 1.9856011049114446 3.4391620045944697 -6.835104570079669e-17 -1.101666666427133e-28 -1.2643445976158094e-16 6.583939119965756" Properties=species:S:1:pos:R:3:Z:I:1:forces:R:3 cutoff=-1.0 stress="0.0785163187871939 9.541396550241525e-18 -5.906924623900775e-30 9.541396550241525e-18 0.07851631845282712 3.067949519485274e-18 -5.906924623900775e-30 3.067949519485274e-18 0.07850145625924701" Minim_Constant_Volume=T nneightol=1.2 pbc="T T T" energy=-652.140067704 Minim_Hydrostatic_Strain=F
Si       1.98560110       1.14638733       0.42798470       14       0.00000000      -0.00000000       0.00142694 
Si       1.98560110      -1.14638733       3.71995425       14      -0.00000000      -0.00000000       0.00142694 
Si       1.98560110       1.14638733       2.86398487       14       0.00000000       0.00000000      -0.00142694 
Si       1.98560110      -1.14638733      -0.42798470       14      -0.00000000       0.00000000      -0.00142694 
