2
Lattice="3.180886229769141 -3.034781054486248e-26 -2.0640890406201475e-26 -3.034781054486248e-26 3.180886229769141 1.749449386222787e-18 -2.0640890406201475e-26 1.749449386222787e-18 3.180886229769141" Properties=species:S:1:pos:R:3:Z:I:1:forces:R:3 stress="5.3592389005175306e-05 -1.3625511807145516e-26 -1.3625511807145516e-26 -1.3625511807145516e-26 5.359238900517532e-05 -3.2934237304981505e-21 -1.3625511807145516e-26 -3.2934237304981505e-21 5.3592389005175306e-05" energy=-22.4005608424 Minim_Constant_Volume=T Minim_Hydrostatic_Strain=F pbc="T T T"
W      -0.00000000      -0.00000000      -0.00000000       74      -0.00000000      -0.00000000      -0.00000000 
W       1.59044311       1.59044311       1.59044311       74      -0.00000000      -0.00000000       0.00000000 
2
Lattice="3.154154829570476 -3.009277486919581e-26 -2.0467429344708243e-26 -3.009277486919581e-26 3.154154829570476 1.7347474357937635e-18 -2.0467429344708243e-26 1.7347474357937635e-18 3.154154829570476" Properties=species:S:1:pos:R:3:Z:I:1:forces:R:3 stress="-0.04788997790096074 1.385744235313289e-26 4.157232705939867e-26 1.385744235313289e-26 -0.04788997790096076 -1.5493003811539919e-18 4.157232705939867e-26 -1.5493003811539919e-18 -0.04788997790096075" energy=-22.3815343701 Minim_Constant_Volume=T Minim_Hydrostatic_Strain=F pbc="T T T"
W      -0.00000000      -0.00000000      -0.00000000       74       0.00000000       0.00000000       0.00000000 
W       1.57707741       1.57707741       1.57707741       74       0.00000000       0.00000000       0.00000000 
2
Lattice="3.12696248654638 -2.983334148656078e-26 -2.0290977207880657e-26 -2.983334148656078e-26 3.12696248654638 1.7197919723231579e-18 -2.0290977207880657e-26 1.7197919723231579e-18 3.12696248654638" Properties=species:S:1:pos:R:3:Z:I:1:forces:R:3 stress="-0.10079154356333865 5.639800549881884e-25 -9.023680879811014e-25 5.639800549881884e-25 -0.10079154356333861 -1.1344849427658592e-17 -9.023680879811014e-25 -1.1344849427658592e-17 -0.10079154356333861" energy=-22.3221184255 Minim_Constant_Volume=T Minim_Hydrostatic_Strain=F pbc="T T T"
W      -0.00000000      -0.00000000      -0.00000000       74       0.00000000       0.00000000       0.00000000 
W       1.56348124       1.56348124       1.56348124       74       0.00000000       0.00000000       0.00000000 
2
Lattice="3.0992888008267583 -2.956931576837026e-26 -2.0111401620194258e-26 -2.956931576837026e-26 3.0992888008267583 1.7045717761263803e-18 -2.0111401620194258e-26 1.7045717761263803e-18 3.0992888008267583" Properties=species:S:1:pos:R:3:Z:I:1:forces:R:3 stress="-0.1607100900103728 1.0582079243120268e-42 -2.8704831260769986e-26 1.0582079243120268e-42 -0.16071009001037256 4.3501706181433614e-17 -2.8704831260769986e-26 4.3501706181433614e-17 -0.16071009001037267" energy=-22.2174713208 Minim_Constant_Volume=T Minim_Hydrostatic_Strain=F pbc="T T T"
W      -0.00000000      -0.00000000      -0.00000000       74       0.00000000       0.00000000       0.00000000 
W       1.54964440       1.54964440       1.54964440       74       0.00000000      -0.00000000      -0.00000000 
2
Lattice="3.07111188848033 -2.9300488927087514e-26 -1.9928560575995708e-26 -2.9300488927087514e-26 3.07111188848033 1.6890748113029354e-18 -1.9928560575995708e-26 1.6890748113029354e-18 3.07111188848033" Properties=species:S:1:pos:R:3:Z:I:1:forces:R:3 stress="-0.23060687912478584 -1.461698556624184e-26 -8.770191339745113e-26 -1.461698556624184e-26 -0.2306068791247859 3.931408132626251e-17 -8.770191339745113e-26 3.931408132626251e-17 -0.23060687912478606" energy=-22.0608353983 Minim_Constant_Volume=T Minim_Hydrostatic_Strain=F pbc="T T T"
W      -0.00000000      -0.00000000      -0.00000000       74       0.00000000       0.00000000       0.00000000 
W       1.53555594       1.53555594       1.53555594       74       0.00000000       0.00000000       0.00000000 
2
Lattice="3.0424082288883443 -2.9026636560068083e-26 -1.9742301449105124e-26 -2.9026636560068083e-26 3.0424082288883443 1.6732881417937933e-18 -1.9742301449105124e-26 1.6732881417937933e-18 3.0424082288883443" Properties=species:S:1:pos:R:3:Z:I:1:forces:R:3 stress="-0.3146452457436581 -2.3830552152797283e-25 1.1915276076398644e-25 -2.3830552152797283e-25 -0.3146452457436582 2.6569837575404793e-17 1.1915276076398644e-25 2.6569837575404793e-17 -0.3146452457436582" energy=-21.8425883695 Minim_Constant_Volume=T Minim_Hydrostatic_Strain=F pbc="T T T"
W      -0.00000000      -0.00000000      -0.00000000       74       0.00000000       0.00000000       0.00000000 
W       1.52120411       1.52120411       1.52120411       74       0.00000000       0.00000000       0.00000000 
2
Lattice="3.2071757379110535 -3.059863027080605e-26 -2.081148401351497e-26 -3.059863027080605e-26 3.2071757379110535 1.7639083013051745e-18 -2.081148401351497e-26 1.7639083013051745e-18 3.2071757379110535" Properties=species:S:1:pos:R:3:Z:I:1:forces:R:3 stress="0.044775967466178686 -7.371676533916574e-26 -2.6806096486969374e-26 -7.371676533916574e-26 0.04477596746617872 -2.0781343659781195e-33 -2.6806096486969374e-26 -2.0781343659781195e-33 0.04477596746617875" energy=-22.3822930444 Minim_Constant_Volume=T Minim_Hydrostatic_Strain=F pbc="T T T"
W      -0.00000000      -0.00000000      -0.00000000       74       0.00000000      -0.00000000       0.00000000 
W       1.60358787       1.60358787       1.60358787       74      -0.00000000       0.00000000      -0.00000000 
2
Lattice="3.23304117537989 -3.084540407510562e-26 -2.097932581027784e-26 -3.084540407510562e-26 3.23304117537989 1.7781339825888223e-18 -2.097932581027784e-26 1.7781339825888223e-18 3.23304117537989" Properties=species:S:1:pos:R:3:Z:I:1:forces:R:3 stress="0.08477669730641751 1.5827337783451967e-25 5.275779261150655e-26 1.5827337783451967e-25 0.08477669730641751 -8.493086370019564e-18 5.275779261150655e-26 -8.493086370019564e-18 0.08477669730641756" energy=-22.3297937265 Minim_Constant_Volume=T Minim_Hydrostatic_Strain=F pbc="T T T"
W      -0.00000000      -0.00000000      -0.00000000       74       0.00000000       0.00000000       0.00000000 
W       1.61652059       1.61652059       1.61652059       74       0.00000000       0.00000000       0.00000000 
2
Lattice="3.2584992406887388 -3.108829127289381e-26 -2.114452415376968e-26 -3.108829127289381e-26 3.2584992406887388 1.792135614056232e-18 -2.114452415376968e-26 1.792135614056232e-18 3.2584992406887388" Properties=species:S:1:pos:R:3:Z:I:1:forces:R:3 stress="0.11894143676724286 9.088911784495666e-26 -1.6540819340177324e-43 9.088911784495666e-26 0.11894143676724289 -1.0757244578232477e-17 -1.6540819340177324e-43 -1.0757244578232477e-17 0.11894143676724286" energy=-22.2474242084 Minim_Constant_Volume=T Minim_Hydrostatic_Strain=F pbc="T T T"
W      -0.00000000      -0.00000000      -0.00000000       74       0.00000000       0.00000000       0.00000000 
W       1.62924962       1.62924962       1.62924962       74       0.00000000       0.00000000       0.00000000 
2
Lattice="3.2835656045196577 -3.13274413730986e-26 -2.130718073163588e-26 -3.13274413730986e-26 3.2835656045196577 1.8059218143951293e-18 -2.130718073163588e-26 1.8059218143951293e-18 3.2835656045196577" Properties=species:S:1:pos:R:3:Z:I:1:forces:R:3 stress="0.14665141323269731 4.335812779644823e-43 6.393338591560123e-27 4.335812779644823e-43 0.14665141323269723 -3.3680885872069557e-18 6.393338591560123e-27 -3.3680885872069557e-18 0.14665141323269723" energy=-22.1401242699 Minim_Constant_Volume=T Minim_Hydrostatic_Strain=F pbc="T T T"
W      -0.00000000      -0.00000000      -0.00000000       74      -0.00000000      -0.00000000      -0.00000000 
W       1.64178280       1.64178280       1.64178280       74       0.00000000       0.00000000       0.00000000 
2
Lattice="3.3082549947556763 -3.156299488970622e-26 -2.1467391113663467e-26 -3.156299488970622e-26 3.3082549947556763 1.819500683765051e-18 -2.1467391113663467e-26 1.819500683765051e-18 3.3082549947556763" Properties=species:S:1:pos:R:3:Z:I:1:forces:R:3 stress="0.16768650294826046 -5.0386145228170836e-26 -1.8894804460564056e-26 -5.0386145228170836e-26 0.16768650294826032 -1.9120485007658673e-17 -1.8894804460564056e-26 -1.9120485007658673e-17 0.1676865029482604" energy=-22.0132706119 Minim_Constant_Volume=T Minim_Hydrostatic_Strain=F pbc="T T T"
W      -0.00000000      -0.00000000      -0.00000000       74       0.00000000      -0.00000000      -0.00000000 
W       1.65412750       1.65412750       1.65412750       74      -0.00000000       0.00000000       0.00000000 
2
Lattice="3.332581272756677 -3.1795084069484776e-26 -2.1625245246738163e-26 -3.1795084069484776e-26 3.332581272756677 1.8328798457481645e-18 -2.1625245246738163e-26 1.8328798457481645e-18 3.332581272756677" Properties=species:S:1:pos:R:3:Z:I:1:forces:R:3 stress="0.187427595905078 6.20665494650578e-27 -2.482661978602312e-26 6.20665494650578e-27 0.18742759590507801 -8.485310754948646e-18 -2.482661978602312e-26 -8.485310754948646e-18 0.18742759590507813" energy=-21.8705250605 Minim_Constant_Volume=T Minim_Hydrostatic_Strain=F pbc="T T T"
W      -0.00000000      -0.00000000      -0.00000000       74       0.00000000       0.00000000       0.00000000 
W       1.66629064       1.66629064       1.66629064       74       0.00000000       0.00000000       0.00000000 
