2
Lattice="3.1757678944439247 3.347676989687049e-26 4.906512823957317e-27 3.347676989687049e-26 3.1757678944439247 1.0386769211732422e-52 4.906512823957317e-27 5.19338460586621e-53 3.1757678944439247" Properties=species:S:1:pos:R:3:Z:I:1:forces:R:3 stress="-0.0004523192907444324 2.1871147595654773e-25 2.050420087092634e-25 2.1871147595654773e-25 -0.00045231929074443224 -4.6682016307805866e-21 2.050420087092634e-25 -4.6682016307805866e-21 -0.0004523192907444322" energy=-22.3977280637 Minim_Constant_Volume=T Minim_Hydrostatic_Strain=F pbc="T T T"
W       0.00000000       0.00000000       0.00000000       74       0.00000000       0.00000000       0.00000000 
W       1.58788395       1.58788395       1.58788395       74       0.00000000       0.00000000       0.00000000 
2
Lattice="3.1490795075000717 3.3195439201953805e-26 4.865279674324485e-27 3.3195439201953805e-26 3.1490795075000717 1.0299481310023928e-52 4.865279674324485e-27 5.149740655011963e-53 3.1490795075000717" Properties=species:S:1:pos:R:3:Z:I:1:forces:R:3 stress="-0.04535476801692037 8.341287596020045e-26 3.6290196907985695e-42 8.341287596020045e-26 -0.045354768016920385 -1.982105736896051e-18 3.6290196907985695e-42 -1.982105736896051e-18 -0.045354768016920365" energy=-22.3799668009 Minim_Constant_Volume=T Minim_Hydrostatic_Strain=F pbc="T T T"
W       0.00000000       0.00000000       0.00000000       74       0.00000000      -0.00000000      -0.00000000 
W       1.57453975       1.57453975       1.57453975       74      -0.00000000      -0.00000000       0.00000000 
2
Lattice="3.1219309194297282 3.2909257381977017e-26 4.823335520989942e-27 3.2909257381977017e-26 3.1219309194297282 1.0210688259623617e-52 4.823335520989942e-27 5.105344129811808e-53 3.1219309194297282" Properties=species:S:1:pos:R:3:Z:I:1:forces:R:3 stress="-0.09990918663691166 4.52639548452905e-25 4.5263954845290515e-25 4.52639548452905e-25 -0.09990918663691148 8.015210489854658e-18 4.5263954845290515e-25 8.015210489854658e-18 -0.09990918663691155" energy=-22.3225323771 Minim_Constant_Volume=T Minim_Hydrostatic_Strain=F pbc="T T T"
W       0.00000000       0.00000000       0.00000000       74      -0.00000000       0.00000000      -0.00000000 
W       1.56096546       1.56096546       1.56096546       74       0.00000000      -0.00000000       0.00000000 
2
Lattice="3.0943017631880463 3.2618009741503775e-26 4.7806488971809096e-27 3.2618009741503775e-26 3.0943017631880463 1.0120323447415734e-52 4.7806488971809096e-27 5.060161723707866e-53 3.0943017631880463" Properties=species:S:1:pos:R:3:Z:I:1:forces:R:3 stress="-0.16655148144909676 -5.471512094313199e-25 -3.455691849039915e-25 -5.471512094313199e-25 -0.16655148144909662 -7.41814833921265e-18 -3.455691849039915e-25 -7.41814833921265e-18 -0.16655148144909657" energy=-22.2167453726 Minim_Constant_Volume=T Minim_Hydrostatic_Strain=F pbc="T T T"
W       0.00000000       0.00000000       0.00000000       74      -0.00000000       0.00000000       0.00000000 
W       1.54715088       1.54715088       1.54715088       74       0.00000000      -0.00000000      -0.00000000 
2
Lattice="3.0661701900569813 3.2321465966313757e-26 4.7371860469621806e-27 3.2321465966313757e-26 3.0661701900569813 1.0028315414276238e-52 4.7371860469621806e-27 5.014157707138118e-53 3.0661701900569813" Properties=species:S:1:pos:R:3:Z:I:1:forces:R:3 stress="-0.2489367182361043 3.226110682780887e-25 1.1731311573748679e-24 3.226110682780887e-25 -0.24893671823610444 -5.296335442990248e-18 1.1731311573748679e-24 -5.296335442990248e-18 -0.24893671823610442" energy=-22.0516194065 Minim_Constant_Volume=T Minim_Hydrostatic_Strain=F pbc="T T T"
W       0.00000000       0.00000000       0.00000000       74       0.00000000      -0.00000000       0.00000000 
W       1.53308510       1.53308510       1.53308510       74       0.00000000       0.00000000       0.00000000 
2
Lattice="3.0375127172645984 3.201937851710979e-26 4.6929106898102834e-27 3.201937851710979e-26 3.0375127172645984 9.934587356691569e-53 4.6929106898102834e-27 4.967293678345784e-53 3.0375127172645984" Properties=species:S:1:pos:R:3:Z:I:1:forces:R:3 stress="-0.3522896854352699 -1.1953714353927244e-25 2.7972684423261676e-42 -1.1953714353927244e-25 -0.35228968543527006 1.9224434839645884e-17 2.7972684423261676e-42 1.9224434839645884e-17 -0.35228968543527034" energy=-21.8125283241 Minim_Constant_Volume=T Minim_Hydrostatic_Strain=F pbc="T T T"
W       0.00000000       0.00000000       0.00000000       74      -0.00000000       0.00000000      -0.00000000 
W       1.51875636       1.51875636       1.51875636       74       0.00000000      -0.00000000      -0.00000000 
2
Lattice="3.2020151003755455 3.375344996374373e-26 4.9470643556740566e-27 3.375344996374373e-26 3.2020151003755455 1.0472614172550094e-52 4.9470643556740566e-27 5.236307086275046e-53 3.2020151003755455" Properties=species:S:1:pos:R:3:Z:I:1:forces:R:3 stress="0.03677075745810699 -8.06777161421578e-26 4.0338858071078903e-26 -8.06777161421578e-26 0.036770757458106984 -2.350960290830814e-19 4.0338858071078903e-26 -2.350960290830814e-19 0.03677075745810699" energy=-22.3828874806 Minim_Constant_Volume=T Minim_Hydrostatic_Strain=F pbc="T T T"
W       0.00000000       0.00000000       0.00000000       74       0.00000000      -0.00000000       0.00000000 
W       1.60100755       1.60100755       1.60100755       74      -0.00000000       0.00000000       0.00000000 
2
Lattice="3.227838918002383 3.4025666961108323e-26 4.986961758935576e-27 3.4025666961108323e-26 3.227838918002383 1.0557074385881523e-52 4.986961758935576e-27 5.2785371929407605e-53 3.227838918002383" Properties=species:S:1:pos:R:3:Z:I:1:forces:R:3 stress="0.06942117815150867 -2.6463993732837432e-25 5.292798746567486e-26 -2.6463993732837432e-25 0.06942117815150872 -3.1097399734588783e-18 5.292798746567486e-26 -3.1097399734588783e-18 0.06942117815150872" energy=-22.3399526204 Minim_Constant_Volume=T Minim_Hydrostatic_Strain=F pbc="T T T"
W       0.00000000       0.00000000       0.00000000       74       0.00000000       0.00000000       0.00000000 
W       1.61391946       1.61391946       1.61391946       74      -0.00000000       0.00000000       0.00000000 
2
Lattice="3.2532560189680995 3.4293596630012477e-26 5.026230791176341e-27 3.4293596630012477e-26 3.2532560189680995 1.0640204378543792e-52 5.026230791176341e-27 5.320102189271895e-53 3.2532560189680995" Properties=species:S:1:pos:R:3:Z:I:1:forces:R:3 stress="0.0964396851718651 1.0420836921639438e-25 -8.041729698692175e-43 1.0420836921639438e-25 0.09643968517186505 -2.877132319111158e-18 -8.041729698692175e-43 -2.877132319111158e-18 0.09643968517186509" energy=-22.2732234723 Minim_Constant_Volume=T Minim_Hydrostatic_Strain=F pbc="T T T"
W       0.00000000       0.00000000       0.00000000       74      -0.00000000       0.00000000      -0.00000000 
W       1.62662801       1.62662801       1.62662801       74       0.00000000      -0.00000000       0.00000000 
2
Lattice="3.278282048739199 3.455740389424771e-26 5.064895624402806e-27 3.455740389424771e-26 3.278282048739199 1.0722055321105785e-52 5.064895624402806e-27 5.361027660552892e-53 3.278282048739199" Properties=species:S:1:pos:R:3:Z:I:1:forces:R:3 stress="0.11965865138722326 7.183638879838191e-25 2.05246825138234e-25 7.183638879838191e-25 0.11965865138722315 -3.3524233213761892e-18 2.05246825138234e-25 -3.3524233213761892e-18 0.11965865138722319" energy=-22.1865234255 Minim_Constant_Volume=T Minim_Hydrostatic_Strain=F pbc="T T T"
W       0.00000000       0.00000000       0.00000000       74       0.00000000       0.00000000       0.00000000 
W       1.63914102       1.63914102       1.63914102       74      -0.00000000      -0.00000000      -0.00000000 
2
Lattice="3.3029317115002073 3.481724375525563e-26 5.102978976355165e-27 3.481724375525563e-26 3.3029317115002073 1.0802675305549095e-52 5.102978976355165e-27 5.401337652774547e-53 3.3029317115002073" Properties=species:S:1:pos:R:3:Z:I:1:forces:R:3 stress="0.14160922867768258 -1.0109737845622675e-25 -4.4230103074599194e-26 -1.0109737845622675e-25 0.14160922867768258 3.642534408637185e-18 -4.4230103074599194e-26 3.642534408637185e-18 0.14160922867768258" energy=-22.0819334566 Minim_Constant_Volume=T Minim_Hydrostatic_Strain=F pbc="T T T"
W       0.00000000       0.00000000       0.00000000       74       0.00000000      -0.00000000      -0.00000000 
W       1.65146586       1.65146586       1.65146586       74      -0.00000000       0.00000000       0.00000000 
2
Lattice="3.3272188463068186 3.5073262094882297e-26 5.140502228162799e-27 3.5073262094882297e-26 3.3272188463068186 1.0882109594336965e-52 5.140502228162799e-27 5.441054797168481e-53 3.3272188463068186" Properties=species:S:1:pos:R:3:Z:I:1:forces:R:3 stress="0.15456176577311997 3.1133387026960177e-26 -2.4193536443417485e-43 3.1133387026960177e-26 0.15456176577311986 8.007637155255124e-18 -2.4193536443417485e-43 8.007637155255124e-18 0.15456176577311984" energy=-21.9629931811 Minim_Constant_Volume=T Minim_Hydrostatic_Strain=F pbc="T T T"
W       0.00000000       0.00000000       0.00000000       74       0.00000000      -0.00000000      -0.00000000 
W       1.66360942       1.66360942       1.66360942       74      -0.00000000      -0.00000000      -0.00000000 
