2
Lattice="3.177332718626688 -1.1774648287833522e-25 -2.5163085154556145e-25 -1.1774648287833522e-25 3.177332718626688 -6.617795379126052e-19 -2.5163085154556145e-25 -6.617795379126052e-19 3.177332718626688" Properties=species:S:1:pos:R:3:Z:I:1:forces:R:3 stress="-0.0003717084195220372 4.0968018727259723e-26 -5.5508802057781275e-42 4.0968018727259723e-26 -0.0003717084195220373 2.49298814861067e-19 -5.5508802057781275e-42 2.49298814861067e-19 -0.0003717084195220375" energy=-22.3910390296 Minim_Constant_Volume=T Minim_Hydrostatic_Strain=F pbc="T T T"
W      -0.00000000       0.00000000       0.00000000       74      -0.00000000       0.00000000      -0.00000000 
W       1.58866636       1.58866636       1.58866636       74      -0.00000000      -0.00000000       0.00000000 
2
Lattice="3.1506311812780585 -1.167569698532075e-25 -2.4951620659785974e-25 -1.167569698532075e-25 3.1506311812780585 -6.562181023901177e-19 -2.4951620659785974e-25 -6.562181023901177e-19 3.1506311812780585" Properties=species:S:1:pos:R:3:Z:I:1:forces:R:3 stress="-0.04663017874904235 -1.1110764686526723e-25 -5.555382343263359e-26 -1.1110764686526723e-25 -0.04663017874904221 3.630233619720494e-17 -5.555382343263359e-26 3.630233619720494e-17 -0.04663017874904223" energy=-22.3726921804 Minim_Constant_Volume=T Minim_Hydrostatic_Strain=F pbc="T T T"
W      -0.00000000       0.00000000       0.00000000       74       0.00000000       0.00000000      -0.00000000 
W       1.57531559       1.57531559       1.57531559       74       0.00000000      -0.00000000      -0.00000000 
2
Lattice="3.12346921604397 -1.157503941629663e-25 -2.4736509777584794e-25 -1.157503941629663e-25 3.12346921604397 -6.505607682695719e-19 -2.4736509777584794e-25 -6.505607682695719e-19 3.12346921604397" Properties=species:S:1:pos:R:3:Z:I:1:forces:R:3 stress="-0.10100258481631313 -8.478633970446611e-26 -1.1304845293928813e-25 -8.478633970446611e-26 -0.1010025848163133 -2.6268859122487832e-17 -1.1304845293928813e-25 -2.6268859122487832e-17 -0.1010025848163133" energy=-22.3140745697 Minim_Constant_Volume=T Minim_Hydrostatic_Strain=F pbc="T T T"
W      -0.00000000       0.00000000       0.00000000       74       0.00000000      -0.00000000      -0.00000000 
W       1.56173461       1.56173461       1.56173461       74       0.00000000       0.00000000      -0.00000000 
2
Lattice="3.0958264458439406 -1.1472600066807467e-25 -2.451759113038948e-25 -1.1472600066807467e-25 3.0958264458439406 -6.448032913826355e-19 -2.451759113038948e-25 -6.448032913826355e-19 3.0958264458439406" Properties=species:S:1:pos:R:3:Z:I:1:forces:R:3 stress="-0.16543029311686555 5.753814762086444e-26 2.3981580117529738e-42 5.753814762086444e-26 -0.1654302931168656 2.1292214110718576e-17 2.3981580117529738e-42 2.1292214110718576e-17 -0.1654302931168656" energy=-22.207993028 Minim_Constant_Volume=T Minim_Hydrostatic_Strain=F pbc="T T T"
W      -0.00000000       0.00000000       0.00000000       74       0.00000000      -0.00000000      -0.00000000 
W       1.54791322       1.54791322       1.54791322       74      -0.00000000       0.00000000       0.00000000 
2
Lattice="3.0676810111942134 -1.136829792936812e-25 -2.429469160065147e-25 -1.136829792936812e-25 3.0676810111942134 -6.389411188038392e-19 -2.429469160065147e-25 -6.389411188038392e-19 3.0676810111942134" Properties=species:S:1:pos:R:3:Z:I:1:forces:R:3 stress="-0.2421096480179556 -2.929939791814365e-26 -1.4649698959071828e-26 -2.929939791814365e-26 -0.2421096480179558 -4.698571444436868e-17 -1.4649698959071828e-26 -4.698571444436868e-17 -0.2421096480179557" energy=-22.0455078847 Minim_Constant_Volume=T Minim_Hydrostatic_Strain=F pbc="T T T"
W      -0.00000000       0.00000000       0.00000000       74      -0.00000000      -0.00000000      -0.00000000 
W       1.53384051       1.53384051       1.53384051       74      -0.00000000       0.00000000      -0.00000000 
2
Lattice="3.0390094177519806 -1.1262045937987133e-25 -2.406762512345372e-25 -1.1262045937987133e-25 3.0390094177519806 -6.329693570968626e-19 -2.406762512345372e-25 -6.329693570968626e-19 3.0390094177519806" Properties=species:S:1:pos:R:3:Z:I:1:forces:R:3 stress="-0.3333671095348787 -2.2689691579059636e-24 -1.4330331523616613e-24 -2.2689691579059636e-24 -0.3333671095348789 -2.8119334712234565e-17 -1.4330331523616613e-24 -2.8119334712234565e-17 -0.3333671095348789" energy=-21.8157998024 Minim_Constant_Volume=T Minim_Hydrostatic_Strain=F pbc="T T T"
W      -0.00000000       0.00000000       0.00000000       74       0.00000000      -0.00000000      -0.00000000 
W       1.51950471       1.51950471       1.51950471       74       0.00000000      -0.00000000       0.00000000 
2
Lattice="3.203592857576066 -1.1871963843836171e-25 -2.5371053967101303e-25 -1.1871963843836171e-25 3.203592857576066 -6.672490383264465e-19 -2.5371053967101303e-25 -6.672490383264465e-19 3.203592857576066" Properties=species:S:1:pos:R:3:Z:I:1:forces:R:3 stress="0.040057649558067246 -4.298574334876633e-25 -1.0746435837191583e-24 -4.298574334876633e-25 0.04005764955806726 -4.352271329754729e-18 -1.0746435837191583e-24 -4.352271329754729e-18 0.04005764955806727" energy=-22.3748894345 Minim_Constant_Volume=T Minim_Hydrostatic_Strain=F pbc="T T T"
W      -0.00000000       0.00000000       0.00000000       74      -0.00000000      -0.00000000      -0.00000000 
W       1.60179643       1.60179643       1.60179643       74      -0.00000000       0.00000000      -0.00000000 
2
Lattice="3.2294293996008 -1.1967709622530245e-25 -2.5575668077312792e-25 -1.1967709622530245e-25 3.2294293996008 -6.726303113489892e-19 -2.5575668077312792e-25 -6.726303113489892e-19 3.2294293996008" Properties=species:S:1:pos:R:3:Z:I:1:forces:R:3 stress="0.07628878112274463 2.6437933320831416e-26 5.287586664166281e-26 2.6437933320831416e-26 0.07628878112274477 -1.8520438609605186e-18 5.287586664166281e-26 -1.8520438609605186e-18 0.07628878112274477" energy=-22.3278885893 Minim_Constant_Volume=T Minim_Hydrostatic_Strain=F pbc="T T T"
W      -0.00000000       0.00000000       0.00000000       74       0.00000000      -0.00000000      -0.00000000 
W       1.61471470       1.61471470       1.61471470       74      -0.00000000       0.00000000      -0.00000000 
2
Lattice="3.254859024559317 -1.2061947436600742e-25 -2.577705958237247e-25 -1.2061947436600742e-25 3.254859024559317 -6.77926831085711e-19 -2.577705958237247e-25 -6.77926831085711e-19 3.254859024559317" Properties=species:S:1:pos:R:3:Z:I:1:forces:R:3 stress="0.1080332592764608 3.6437012516707487e-25 3.123172501432069e-25 3.6437012516707487e-25 0.10803325927646082 -8.863689504919213e-19 3.123172501432069e-25 -8.863689504919213e-19 0.10803325927646082" energy=-22.2537259703 Minim_Constant_Volume=T Minim_Hydrostatic_Strain=F pbc="T T T"
W      -0.00000000       0.00000000       0.00000000       74       0.00000000       0.00000000       0.00000000 
W       1.62742951       1.62742951       1.62742951       74      -0.00000000      -0.00000000       0.00000000 
2
Lattice="3.2798973856272506 -1.2154735294022904e-25 -2.597535244858362e-25 -1.2154735294022904e-25 3.2798973856272506 -6.8314185780308545e-19 -2.597535244858362e-25 -6.8314185780308545e-19 3.2798973856272506" Properties=species:S:1:pos:R:3:Z:I:1:forces:R:3 stress="0.13665324391525632 1.0986627493164988e-43 -2.0504470837233598e-25 1.0986627493164988e-43 0.13665324391525627 -1.4451584980835244e-17 -2.0504470837233598e-25 -1.4451584980835244e-17 0.13665324391525627" energy=-22.155451051 Minim_Constant_Volume=T Minim_Hydrostatic_Strain=F pbc="T T T"
W      -0.00000000       0.00000000       0.00000000       74       0.00000000       0.00000000      -0.00000000 
W       1.63994869       1.63994869       1.63994869       74       0.00000000       0.00000000       0.00000000 
2
Lattice="3.3045591942344505 -1.2246127712824154e-25 -2.617066318403488e-25 -1.2246127712824154e-25 3.3045591942344505 -6.882784556193872e-19 -2.617066318403488e-25 -6.882784556193872e-19 3.3045591942344505" Properties=species:S:1:pos:R:3:Z:I:1:forces:R:3 stress="0.16354912633172017 1.0099782283503464e-25 3.156181963594832e-25 1.0099782283503464e-25 0.16354912633172017 1.0093343024740313e-17 3.156181963594832e-25 1.0093343024740313e-17 0.16354912633172014" energy=-22.0350233499 Minim_Constant_Volume=T Minim_Hydrostatic_Strain=F pbc="T T T"
W      -0.00000000       0.00000000       0.00000000       74      -0.00000000      -0.00000000       0.00000000 
W       1.65227960       1.65227960       1.65227960       74       0.00000000      -0.00000000      -0.00000000 
2
Lattice="3.32885829625565 -1.2336176003433603e-25 -2.6363101441997037e-25 -1.2336176003433603e-25 3.32885829625565 -6.933395083737965e-19 -2.6363101441997037e-25 -6.933395083737965e-19 3.32885829625565" Properties=species:S:1:pos:R:3:Z:I:1:forces:R:3 stress="0.18440067387419204 4.3543819803309135e-25 3.9811492391596933e-25 4.3543819803309135e-25 0.18440067387419187 2.6014846411424227e-17 3.9811492391596933e-25 2.6014846411424227e-17 0.18440067387419187" energy=-21.8954694339 Minim_Constant_Volume=T Minim_Hydrostatic_Strain=F pbc="T T T"
W      -0.00000000       0.00000000       0.00000000       74       0.00000000      -0.00000000       0.00000000 
W       1.66442915       1.66442915       1.66442915       74       0.00000000       0.00000000      -0.00000000 
