2
Lattice="2.936826010993645 -6.476270842486227e-18 6.461997712090737e-23 -1.4684130054968219 2.5433659320154143 4.786385034856407e-23 1.0438204566003251e-22 1.439086774002792e-22 4.815606489580701" Properties=species:S:1:pos:R:3:Z:I:1:forces:R:3 stress="3.568004148528393e-05 6.3639586217995e-22 -1.1693720043549624e-26 6.3639586217995e-22 3.5680041485283894e-05 -3.032065305436229e-26 -1.1693720043549624e-26 -3.032065305436229e-26 7.094360893102088e-05" energy=-12.1446518882 Minim_Constant_Volume=T Minim_Hydrostatic_Strain=F pbc="T T T"
Ti       0.00000000      -0.00000000       0.00000000       22      -0.00000000       0.00000000      -0.00000000 
Ti       0.00000000       1.69557729       2.40780324       22       0.00000000      -0.00000000       0.00000000 
2
Lattice="2.9102330496304605 -2.6731117350517337e-17 1.1276147917795414e-22 -1.4551165248152296 2.5203357519130383 1.4749753122461457e-22 1.8312845655860134e-22 3.7790541186650765e-22 4.781409544906052" Properties=species:S:1:pos:R:3:Z:I:1:forces:R:3 stress="-0.01698959778232752 -1.9269885138415773e-18 -6.202861984871748e-24 -1.9269885138415773e-18 -0.016989597782327504 4.461959850768716e-24 -6.202861984871748e-24 4.461959850768716e-24 -0.016986985261187578" energy=-12.1371621149 Minim_Constant_Volume=T Minim_Hydrostatic_Strain=F pbc="T T T"
Ti       0.00000000      -0.00000000       0.00000000       22       0.00000000      -0.00000000       0.00000000 
Ti       0.00000000       1.68022383       2.39070477       22      -0.00000000       0.00000000      -0.00000000 
2
Lattice="2.875477559343133 -4.2810519639488315e-17 1.0436999327636878e-21 -1.437738779671566 2.490236614403229 2.032531797488632e-21 1.710806535041626e-21 4.83337230031354e-21 4.771956451497075" Properties=species:S:1:pos:R:3:Z:I:1:forces:R:3 stress="-0.032571106122522675 -2.3059365634496342e-18 -6.121966454416464e-22 -2.3059365634496342e-18 -0.03257110612252269 5.122414956184137e-22 -6.121966454416464e-22 5.122414956184137e-22 -0.03253197110870368" energy=-12.1137204073 Minim_Constant_Volume=T Minim_Hydrostatic_Strain=F pbc="T T T"
Ti       0.00000000      -0.00000000      -0.00000000       22      -0.00000000       0.00000000      -0.00000000 
Ti       0.00000000       1.66015774       2.38597823       22       0.00000000      -0.00000000       0.00000000 
2
Lattice="2.8315978162590922 -1.214058582750274e-16 -1.3874200068635118e-20 -1.4157989081295455 2.452235642180915 1.2360756318788283e-20 -2.3079015469736292e-20 1.0238313889407011e-20 4.791059613753039" Properties=species:S:1:pos:R:3:Z:I:1:forces:R:3 stress="-0.050397602789362846 2.7491987805677244e-17 -3.697908530701694e-21 2.7491987805677244e-17 -0.050397602789362825 -9.138642182223862e-21 -3.697908530701694e-21 -9.138642182223862e-21 -0.05037318950949512" energy=-12.0779666023 Minim_Constant_Volume=T Minim_Hydrostatic_Strain=F pbc="T T T"
Ti      -0.00000000      -0.00000000       0.00000000       22       0.00000000      -0.00000000       0.00000000 
Ti      -0.00000000       1.63482376       2.39552981       22       0.00000000       0.00000000      -0.00000000 
2
Lattice="2.801835153815386 -1.8065241724314918e-16 3.843820468023131e-21 -1.4009175769076923 2.4264604204204048 4.127870551998833e-20 6.998572304659931e-21 8.40024368334403e-20 4.7616990946995115" Properties=species:S:1:pos:R:3:Z:I:1:forces:R:3 stress="-0.07264256904176837 2.5796472613302383e-17 -2.8063355023421255e-21 2.5796472613302383e-17 -0.07264256904176843 -6.1224201483267114e-21 -2.8063355023421255e-21 -6.1224201483267114e-21 -0.07263086586048423" energy=-12.0230573292 Minim_Constant_Volume=T Minim_Hydrostatic_Strain=F pbc="T T T"
Ti      -0.00000000      -0.00000000       0.00000000       22       0.00000000      -0.00000000       0.00000000 
Ti      -0.00000000       1.61764028       2.38084955       22      -0.00000000       0.00000000      -0.00000000 
2
Lattice="2.77073211834461 -8.961162841463507e-17 1.6634016384370235e-20 -1.3853660591723043 2.3995244015679047 5.888954414838667e-20 2.869581840725938e-20 1.3067361735641804e-19 4.733935207475326" Properties=species:S:1:pos:R:3:Z:I:1:forces:R:3 stress="-0.09733223852001856 -2.2517869713221496e-17 -7.0815926192195055e-22 -2.2517869713221496e-17 -0.09733223852001854 -2.171249495929211e-23 -7.0815926192195055e-22 -2.171249495929211e-23 -0.0973084625798397" energy=-11.9468128059 Minim_Constant_Volume=T Minim_Hydrostatic_Strain=F pbc="T T T"
Ti      -0.00000000      -0.00000000       0.00000000       22      -0.00000000      -0.00000000      -0.00000000 
Ti       0.00000000       1.59968293       2.36696760       22       0.00000000       0.00000000       0.00000000 
2
Lattice="2.962946052598092 3.277791298155851e-17 1.0477331839644523e-22 -1.4814730262990454 2.565986551592772 6.350450446452392e-23 1.7040870752849458e-22 2.1175213816304855e-22 4.8493473898871935" Properties=species:S:1:pos:R:3:Z:I:1:forces:R:3 stress="0.015435712828478365 6.027028734613806e-19 1.5064894024474923e-23 6.027028734613806e-19 0.015435712828478346 -1.238516622693944e-25 1.5064894024474923e-23 -1.238516622693944e-25 0.015399418264381985" energy=-12.1375770273 Minim_Constant_Volume=T Minim_Hydrostatic_Strain=F pbc="T T T"
Ti       0.00000000      -0.00000000       0.00000000       22       0.00000000      -0.00000000      -0.00000000 
Ti       0.00000000       1.71065770       2.42467369       22      -0.00000000       0.00000000       0.00000000 
2
Lattice="2.9884512381091537 3.611224173644976e-17 1.6589005010021025e-22 -1.4942256190545762 2.5880746901735865 1.1256267553502756e-22 2.7070628844989603e-22 3.6251010068439703e-22 4.88319424748772" Properties=species:S:1:pos:R:3:Z:I:1:forces:R:3 stress="0.029259935029486654 -1.4643749128107237e-17 -1.3174299300136827e-23 -1.4643749128107237e-17 0.02925993502948661 -3.304373696113387e-23 -1.3174299300136827e-23 -3.304373696113387e-23 0.02924156391703593" energy=-12.1173759662 Minim_Constant_Volume=T Minim_Hydrostatic_Strain=F pbc="T T T"
Ti       0.00000000      -0.00000000       0.00000000       22       0.00000000      -0.00000000       0.00000000 
Ti       0.00000000       1.72538313       2.44159712       22      -0.00000000       0.00000000      -0.00000000 
2
Lattice="3.013505670520828 7.154211595220977e-17 3.285367765820394e-22 -1.5067528352604134 2.609772465119497 2.2192175306569705e-22 5.368855586645993e-22 7.228008026776162e-22 4.916675350788874" Properties=species:S:1:pos:R:3:Z:I:1:forces:R:3 stress="0.04168746642437867 -1.6113237519298922e-17 -2.7169146935025753e-23 -1.6113237519298922e-17 0.041687466424378636 -8.647347175580929e-23 -2.7169146935025753e-23 -8.647347175580929e-23 0.04167487660789056" energy=-12.0853798175 Minim_Constant_Volume=T Minim_Hydrostatic_Strain=F pbc="T T T"
Ti       0.00000000      -0.00000000       0.00000000       22       0.00000000      -0.00000000       0.00000000 
Ti       0.00000000       1.73984831       2.45833768       22      -0.00000000       0.00000000      -0.00000000 
2
Lattice="3.0381276794116845 2.219082565916113e-16 3.481668264001771e-22 -1.5190638397058414 2.6310957503111854 5.695994868900638e-22 5.696881015912364e-22 1.3973022707084715e-21 4.94980142595984" Properties=species:S:1:pos:R:3:Z:I:1:forces:R:3 stress="0.05282487152487792 -3.3667160713517577e-17 -3.2793623078532336e-23 -3.3667160713517577e-17 0.05282487152487782 -5.696471994623975e-23 -3.2793623078532336e-23 -5.696471994623975e-23 0.052815951883744834" energy=-12.0427942766 Minim_Constant_Volume=T Minim_Hydrostatic_Strain=F pbc="T T T"
Ti      -0.00000000      -0.00000000       0.00000000       22      -0.00000000       0.00000000      -0.00000000 
Ti       0.00000000       1.75406383       2.47490071       22       0.00000000      -0.00000000       0.00000000 
2
Lattice="3.062333430625349 3.1375432834964444e-16 4.585206379739614e-22 -1.5311667153126736 2.652058545779905 8.727646735824657e-22 7.502614641994513e-22 2.073306847292193e-21 4.982585282360174" Properties=species:S:1:pos:R:3:Z:I:1:forces:R:3 stress="0.06275523099170373 -1.864023506176668e-17 -2.5167952655012095e-23 -1.864023506176668e-17 0.06275523099170366 -9.180770998576353e-23 -2.5167952655012095e-23 -9.180770998576353e-23 0.06274995608298499" energy=-11.9907409426 Minim_Constant_Volume=T Minim_Hydrostatic_Strain=F pbc="T T T"
Ti      -0.00000000      -0.00000000       0.00000000       22       0.00000000      -0.00000000       0.00000000 
Ti       0.00000000       1.76803903       2.49129264       22      -0.00000000       0.00000000      -0.00000000 
2
Lattice="3.086144486299381 4.1626093561360147e-16 6.51516520343272e-22 -1.5430722431496897 2.6726795248845434 1.1786078913727415e-21 1.0652538511921928e-21 2.831853703722142e-21 5.015018377474359" Properties=species:S:1:pos:R:3:Z:I:1:forces:R:3 stress="0.0715526590316729 -3.363719097836074e-17 -5.985012130133738e-23 -3.363719097836074e-17 0.07155265903167275 -1.449056966586808e-22 -5.985012130133738e-23 -1.449056966586808e-22 0.07154895536678749" energy=-11.9302715268 Minim_Constant_Volume=T Minim_Hydrostatic_Strain=F pbc="T T T"
Ti      -0.00000000       0.00000000       0.00000000       22       0.00000000      -0.00000000      -0.00000000 
Ti       0.00000000       1.78178635       2.50750919       22      -0.00000000       0.00000000       0.00000000 
