4
Lattice="1.9193831017808074 -3.324469053084449 0.0 1.9193831017808074 3.324469053084449 0.0 0.0 0.0 6.268678975816093" Properties=species:S:1:pos:R:3:Z:I:1:forces:R:3 stress="-0.01547445363529787 1.084961939779639e-18 -2.8645170288999756e-27 1.084961939779639e-18 -0.015474453620300904 -1.6538296769322688e-27 -2.8645170288999756e-27 -1.6538296769322688e-27 -0.009846273547079086" cutoff=-1.0 energy=-652.650490078 nneightol=1.2 pbc="T T T"
Si       1.91938310       1.10815635       0.39179244       14       0.00000000       0.00000000      -0.01215616 
Si       1.91938310      -1.10815635       3.52613192       14       0.00000000      -0.00000000      -0.01215616 
Si       1.91938310       1.10815635       2.74254705       14      -0.00000000       0.00000000       0.01215616 
Si       1.91938310      -1.10815635      -0.39179244       14      -0.00000000      -0.00000000       0.01215616 
4
Lattice="1.9421566828661299 -3.363914052575404 -1.094585106919582e-42 1.9421566828661299 3.363914052575404 8.431355622034572e-27 1.376834610986191e-26 7.949158328972772e-27 6.316005244335649" Properties=species:S:1:pos:R:3:Z:I:1:forces:R:3 stress="0.0012327218773374692 1.5417248451469568e-20 -2.7996300291893865e-27 1.5417248451469568e-20 0.0012327218761708015 -1.623316687071571e-27 -2.7996300291893865e-27 -1.623316687071571e-27 0.00110805070799987" cutoff=-1.0 energy=-652.666592925 nneightol=1.2 pbc="T T T"
Si       1.94215668       1.12130468       0.39346482       14       0.00000000       0.00000000       0.01678486 
Si       1.94215668      -1.12130468       3.55146743       14       0.00000000      -0.00000000       0.01678486 
Si       1.94215668       1.12130468       2.76453781       14       0.00000000      -0.00000000      -0.01678486 
Si       1.94215668      -1.12130468      -0.39346482       14       0.00000000      -0.00000000      -0.01678486 
4
Lattice="1.9404211813054009 -3.3609080756970444 -2.9062837710088084e-30 1.9404211813054009 3.3609080756970444 9.255018062213703e-27 1.5118305285558502e-26 8.734061235173282e-27 6.312139677484259" Properties=species:S:1:pos:R:3:Z:I:1:forces:R:3 stress="0.00027443034748439715 5.729088478249448e-20 -2.8226392384476056e-27 5.729088478249448e-20 0.00027443034722420467 6.093578290513562e-20 -2.8226392384476056e-27 6.093578290513562e-20 -0.0006337547398026512" cutoff=-1.0 energy=-652.666708195 nneightol=1.2 pbc="T T T"
Si       1.94042118       1.12030269       0.39491391       14      -0.00000000      -0.00000000      -0.01926688 
Si       1.94042118      -1.12030269       3.55098375       14      -0.00000000      -0.00000000      -0.01926688 
Si       1.94042118       1.12030269       2.76115593       14       0.00000000      -0.00000000       0.01926688 
Si       1.94042118      -1.12030269      -0.39491391       14       0.00000000      -0.00000000       0.01926688 
4
Lattice="1.9399018911585733 -3.3600086387792976 2.191172349100417e-20 1.9399018911585733 3.3600086387792976 -2.1911712921585664e-20 1.7280684007013515e-26 -4.148240608684065e-20 6.311554238542007" Properties=species:S:1:pos:R:3:Z:I:1:forces:R:3 stress="-0.00032383986311454595 -7.759201587059254e-20 1.4068476391897353e-27 -7.759201587059254e-20 -0.0003238398628073431 -2.8123468929111844e-24 1.4068476391897353e-27 -2.8123468929111844e-24 -0.00010499968708439683" cutoff=-1.0 energy=-652.666732075 nneightol=1.2 pbc="T T T"
Si       1.93990189       1.12000288       0.39364757       14       0.00000000      -0.00000000       0.00793374 
Si       1.93990189      -1.12000288       3.54942469       14      -0.00000000      -0.00000000       0.00793374 
Si       1.93990189       1.12000288       2.76212955       14      -0.00000000       0.00000000      -0.00793374 
Si       1.93990189      -1.12000288      -0.39364757       14       0.00000000       0.00000000      -0.00793374 
4
Lattice="1.9403335892401665 -3.3607563617897895 2.328255620003209e-20 1.9403335892401665 3.3607563617897895 -2.3282546035175207e-20 1.661636142110849e-26 -4.4076764356309134e-20 6.312444381927008" Properties=species:S:1:pos:R:3:Z:I:1:forces:R:3 stress="5.3655599712492415e-05 4.5075466347360936e-23 -7.050097221068382e-28 4.5075466347360936e-23 5.3655599661615984e-05 -3.1436712869514322e-25 -7.050097221068382e-28 -3.1436712869514322e-25 -9.928138243814649e-05" cutoff=-1.0 energy=-652.666744025 nneightol=1.2 pbc="T T T"
Si       1.94033359       1.12025212       0.39404420       14      -0.00000000      -0.00000000       0.00059599 
Si       1.94033359      -1.12025212       3.55026638       14       0.00000000      -0.00000000       0.00059599 
Si       1.94033359       1.12025212       2.76217800       14      -0.00000000       0.00000000      -0.00059599 
Si       1.94033359      -1.12025212      -0.39404420       14       0.00000000       0.00000000      -0.00059599 
