4
Lattice="1.9403335892401665 -3.3607563617897895 2.328255620003209e-20 1.9403335892401665 3.3607563617897895 -2.3282546035175207e-20 1.661636142110849e-26 -4.4076764356309134e-20 6.312444381927008" Properties=species:S:1:pos:R:3:Z:I:1:forces:R:3 cutoff=-1.0 stress="5.365694300007219e-05 3.547570014819895e-21 7.019612613408027e-28 3.547570014819895e-21 5.3656942949194465e-05 -3.135471193366968e-25 7.019612613408027e-28 -3.135471193366968e-25 -9.928162569849527e-05" Minim_Constant_Volume=T nneightol=1.2 pbc="T T T" energy=-652.666744025 Minim_Hydrostatic_Strain=F
Si       1.94033359       1.12025212       0.39404420       14      -0.00000000      -0.00000000       0.00059597 
Si       1.94033359      -1.12025212       3.55026638       14      -0.00000000      -0.00000000       0.00059597 
Si       1.94033359       1.12025212       2.76217800       14       0.00000000       0.00000000      -0.00059597 
Si       1.94033359      -1.12025212      -0.39404420       14       0.00000000       0.00000000      -0.00059597 
4
Lattice="1.9264411879800973 -3.3366940168900503 2.2135345253794243e-20 1.9264411879800973 3.3366940168900503 -2.2135334473120886e-20 1.767883750862055e-26 -4.208319395163581e-20 6.243686658493849" Properties=species:S:1:pos:R:3:Z:I:1:forces:R:3 cutoff=-1.0 stress="-0.011315789743954455 2.899100462432722e-18 2.0128104734117714e-27 2.899100462432722e-18 -0.011315789733677578 -1.5135167786552636e-22 2.0128104734117714e-27 -1.5135167786552636e-22 -0.011317962142710665" Minim_Constant_Volume=T nneightol=1.2 pbc="T T T" energy=-652.655086712 Minim_Hydrostatic_Strain=F
Si       1.92644119       1.11223134       0.38610880       14       0.00000000       0.00000000      -0.00009598 
Si       1.92644119      -1.11223134       3.50795212       14      -0.00000000       0.00000000      -0.00009598 
Si       1.92644119       1.11223134       2.73573454       14       0.00000000      -0.00000000       0.00009598 
Si       1.92644119      -1.11223134      -0.38610880       14      -0.00000000      -0.00000000       0.00009598 
4
Lattice="1.913601297648104 -3.314454674329949 1.5776072714501673e-17 1.913601297648104 3.314454674329949 -1.5776072711076596e-17 5.886757116889439e-27 -2.947124636804644e-17 6.165458536831903" Properties=species:S:1:pos:R:3:Z:I:1:forces:R:3 cutoff=-1.0 stress="-0.022746755761184987 -2.827203034807402e-18 -9.108546021533345e-29 -2.827203034807402e-18 -0.022746755742329892 -2.170742485608423e-19 -9.108546021533345e-29 -2.170742485608423e-19 -0.022762284010131903" Minim_Constant_Volume=T nneightol=1.2 pbc="T T T" energy=-652.620097902 Minim_Hydrostatic_Strain=F
Si       1.91360130       1.10481822       0.37549135       14      -0.00000000       0.00000000      -0.00044060 
Si       1.91360130      -1.10481822       3.45822062       14      -0.00000000       0.00000000      -0.00044060 
Si       1.91360130       1.10481822       2.70723792       14      -0.00000000      -0.00000000       0.00044060 
Si       1.91360130      -1.10481822      -0.37549135       14       0.00000000      -0.00000000       0.00044060 
4
Lattice="1.9014018750966974 -3.2933246544257617 1.537073253505428e-17 1.9014018750966974 3.2933246544257617 -1.5370732744323113e-17 -3.367684672278538e-25 -2.8931359359084304e-17 6.080449195993678" Properties=species:S:1:pos:R:3:Z:I:1:forces:R:3 cutoff=-1.0 stress="-0.03387038176338314 2.408025148641677e-18 1.0696523738764925e-26 2.408025148641677e-18 -0.03387038173969679 4.215583701178975e-27 1.0696523738764925e-26 4.215583701178975e-27 -0.03386800201508617" Minim_Constant_Volume=T nneightol=1.2 pbc="T T T" energy=-652.561363714 Minim_Hydrostatic_Strain=F
Si       1.90140188       1.09777488       0.36281263       14      -0.00000000      -0.00000000       0.00003919 
Si       1.90140188      -1.09777488       3.40303722       14       0.00000000      -0.00000000       0.00003919 
Si       1.90140188       1.09777488       2.67741197       14      -0.00000000       0.00000000      -0.00003919 
Si       1.90140188      -1.09777488      -0.36281263       14      -0.00000000       0.00000000      -0.00003919 
4
Lattice="1.8884187380801605 -3.2708372012347775 -5.410895121853067e-18 1.8884187380801605 3.2708372012347775 5.410894752035885e-18 -5.959796619162712e-25 9.146723822007393e-18 5.99776470856914" Properties=species:S:1:pos:R:3:Z:I:1:forces:R:3 cutoff=-1.0 stress="-0.0456579233112131 -2.6730171539325975e-18 2.1386809999988976e-26 -2.6730171539325975e-18 -0.04565792328567254 3.0537288104646967e-27 2.1386809999988976e-26 3.0537288104646967e-27 -0.045653607542877624" Minim_Constant_Volume=T nneightol=1.2 pbc="T T T" energy=-652.480033178 Minim_Hydrostatic_Strain=F
Si       1.88841874       1.09027907       0.35052107       14      -0.00000000       0.00000000       0.00001586 
Si       1.88841874      -1.09027907       3.34940342       14       0.00000000       0.00000000       0.00001586 
Si       1.88841874       1.09027907       2.64836129       14      -0.00000000      -0.00000000      -0.00001586 
Si       1.88841874      -1.09027907      -0.35052107       14      -0.00000000      -0.00000000      -0.00001586 
4
Lattice="1.8778411785645517 -3.252516330443573 7.930426285618771e-17 1.8778411785645517 3.252516330443573 -7.930426341913269e-17 -9.092352159503275e-25 -1.4610727911485955e-16 5.896869398924872" Properties=species:S:1:pos:R:3:Z:I:1:forces:R:3 cutoff=-1.0 stress="-0.06102024551968155 2.0767017993398683e-17 5.564229307743824e-26 2.0767017993398683e-17 -0.06102024549623978 -2.9992786797277177e-18 5.564229307743824e-26 -2.9992786797277177e-18 -0.06100188235571936" Minim_Constant_Volume=T nneightol=1.2 pbc="T T T" energy=-652.370827661 Minim_Hydrostatic_Strain=F
Si       1.87784118       1.08417211       0.33409863       14       0.00000000      -0.00000000       0.00045955 
Si       1.87784118      -1.08417211       3.28253333       14      -0.00000000      -0.00000000       0.00045955 
Si       1.87784118       1.08417211       2.61433607       14      -0.00000000       0.00000000      -0.00045955 
Si       1.87784118      -1.08417211      -0.33409863       14      -0.00000000       0.00000000      -0.00045955 
4
Lattice="1.9545156585017713 -3.3853204263925023 2.351947151417881e-20 1.9545156585017713 3.3853204263925023 -2.3519460384985345e-20 1.8139832614085072e-26 -4.439892216255158e-20 6.376677991630286" Properties=species:S:1:pos:R:3:Z:I:1:forces:R:3 cutoff=-1.0 stress="0.011140404790214017 -1.2715103215960148e-18 1.370493444820982e-28 -1.2715103215960148e-18 0.01114040477916686 6.36876391822787e-27 1.370493444820982e-28 6.36876391822787e-27 0.01114551626965345" Minim_Constant_Volume=T nneightol=1.2 pbc="T T T" energy=-652.655245739 Minim_Hydrostatic_Strain=F
Si       1.95451566       1.12844014       0.40047332       14       0.00000000      -0.00000000       0.00006493 
Si       1.95451566      -1.12844014       3.58881232       14       0.00000000      -0.00000000       0.00006493 
Si       1.95451566       1.12844014       2.78786568       14      -0.00000000       0.00000000      -0.00006493 
Si       1.95451566      -1.12844014      -0.40047332       14       0.00000000      -0.00000000      -0.00006493 
4
Lattice="1.9690742983214435 -3.4105367303888903 1.7972832565644854e-17 1.9690742983214435 3.4105367303888903 -1.7972832539055875e-17 4.33360858946863e-26 -3.386727323639253e-17 6.435982334207767" Properties=species:S:1:pos:R:3:Z:I:1:forces:R:3 cutoff=-1.0 stress="0.02180595490919069 4.174130074951662e-18 6.375481003337706e-28 4.174130074951662e-18 0.021805954885941746 2.29670058744739e-19 6.375481003337706e-28 2.29670058744739e-19 0.021807918762498654" Minim_Constant_Volume=T nneightol=1.2 pbc="T T T" energy=-652.621214441 Minim_Hydrostatic_Strain=F
Si       1.96907430       1.13684558       0.40544885       14      -0.00000000      -0.00000000       0.00098686 
Si       1.96907430      -1.13684558       3.62344001       14      -0.00000000      -0.00000000       0.00098686 
Si       1.96907430       1.13684558       2.81254233       14      -0.00000000       0.00000000      -0.00098686 
Si       1.96907430      -1.13684558      -0.40544885       14      -0.00000000       0.00000000      -0.00098686 
4
Lattice="1.9836426427939016 -3.4357698434207697 1.813148291412528e-17 1.9836426427939016 3.4357698434207697 -1.813148289344632e-17 3.3615678792041373e-26 -3.4117842808535364e-17 6.49279423965034" Properties=species:S:1:pos:R:3:Z:I:1:forces:R:3 cutoff=-1.0 stress="0.03174276792047715 1.804485860218997e-18 -6.219804472696784e-28 1.804485860218997e-18 0.031742767882754125 3.343195741600833e-19 -6.219804472696784e-28 3.343195741600833e-19 0.03174370598081066" Minim_Constant_Volume=T nneightol=1.2 pbc="T T T" energy=-652.565978066 Minim_Hydrostatic_Strain=F
Si       1.98364264       1.14525661       0.40976938       14      -0.00000000       0.00000000      -0.00001399 
Si       1.98364264      -1.14525661       3.65616649       14      -0.00000000       0.00000000      -0.00001399 
Si       1.98364264       1.14525661       2.83662775       14       0.00000000      -0.00000000       0.00001399 
Si       1.98364264      -1.14525661      -0.40976938       14      -0.00000000      -0.00000000       0.00001399 
4
Lattice="1.9982296917932847 -3.461035353759609 1.8283265711080997e-17 1.9982296917932847 3.4610353537596086 -1.8283265690122442e-17 3.403982103628544e-26 -3.4368734091852514e-17 6.547146907829466" Properties=species:S:1:pos:R:3:Z:I:1:forces:R:3 cutoff=-1.0 stress="0.04082766082034857 7.136993512975613e-19 7.513892654226709e-27 7.136993512975613e-19 0.04082766076417568 4.3011543968930582e-19 7.513892654226709e-27 4.3011543968930582e-19 0.04084992885410726" Minim_Constant_Volume=T nneightol=1.2 pbc="T T T" energy=-652.491128409 Minim_Hydrostatic_Strain=F
Si       1.99822969       1.15367845       0.41351320       14      -0.00000000      -0.00000000       0.00024558 
Si       1.99822969      -1.15367845       3.68708665       14      -0.00000000      -0.00000000       0.00024558 
Si       1.99822969       1.15367845       2.86006026       14       0.00000000       0.00000000      -0.00024558 
Si       1.99822969      -1.15367845      -0.41351320       14       0.00000000       0.00000000      -0.00024558 
4
Lattice="2.0128016675682248 -3.4862747566523065 -2.6513854136136832e-18 2.0128016675682248 3.486274756652306 2.651385436433195e-18 3.706336974985909e-26 5.23707967347734e-18 6.599345327777151" Properties=species:S:1:pos:R:3:Z:I:1:forces:R:3 cutoff=-1.0 stress="0.04897264322329835 7.518531394995694e-18 1.527831147138944e-27 7.518531394995694e-18 0.04897264314281371 -7.61137301945929e-20 1.527831147138944e-27 -7.61137301945929e-20 0.04897987991447759" Minim_Constant_Volume=T nneightol=1.2 pbc="T T T" energy=-652.398547421 Minim_Hydrostatic_Strain=F
Si       2.01280167       1.16209159       0.41700021       14      -0.00000000       0.00000000       0.00008349 
Si       2.01280167      -1.16209159       3.71667287       14      -0.00000000       0.00000000       0.00008349 
Si       2.01280167       1.16209159       2.88267246       14       0.00000000      -0.00000000      -0.00008349 
Si       2.01280167      -1.16209159      -0.41700021       14       0.00000000      -0.00000000      -0.00008349 
4
Lattice="2.027602318650702 -3.511910236333322 -2.670881736090143e-18 2.027602318650702 3.5119102363333217 2.6708817590774527e-18 3.7335906290566184e-26 5.275589274391929e-18 6.647872020269022" Properties=species:S:1:pos:R:3:Z:I:1:forces:R:3 cutoff=-1.0 stress="0.05619935968084627 -1.0830719806272989e-17 1.3782747494615536e-27 -1.0830719806272989e-17 0.056199359588484744 -8.727465895730142e-20 1.3782747494615536e-27 -8.727465895730142e-20 0.05611444291922999" Minim_Constant_Volume=T nneightol=1.2 pbc="T T T" energy=-652.290174123 Minim_Hydrostatic_Strain=F
Si       2.02760232       1.17063675       0.42006652       14      -0.00000000       0.00000000       0.00067948 
Si       2.02760232      -1.17063675       3.74400252       14       0.00000000       0.00000000       0.00067948 
Si       2.02760232       1.17063675       2.90386950       14      -0.00000000      -0.00000000      -0.00067948 
Si       2.02760232      -1.17063675      -0.42006652       14      -0.00000000      -0.00000000      -0.00067948 
