2
Lattice="3.2780978269286813 0.0 -1.5940102109594493e-36 0.0 3.2780978269286813 0.0 -1.5940102109594493e-36 0.0 3.2780978269286813" Properties=species:S:1:pos:R:3:Z:I:1:forces:R:3 stress="6.583035976215846e-05 1.9117248674579206e-34 7.168968252967201e-35 1.9117248674579206e-34 6.583035976215842e-05 1.461727622546114e-20 7.168968252967201e-35 1.461727622546114e-20 6.583035976215838e-05" energy=-12.0075133697 Minim_Constant_Volume=T Minim_Hydrostatic_Strain=F pbc="T T T"
Ti       0.00000000      -0.00000000      -0.00000000       22      -0.00000000       0.00000000       0.00000000 
Ti       1.63904891       1.63904891       1.63904891       22       0.00000000      -0.00000000      -0.00000000 
2
Lattice="3.2505494839285722 0.0 -1.580614533845588e-36 0.0 3.2505494839285722 0.0 -1.580614533845588e-36 0.0 3.2505494839285722" Properties=species:S:1:pos:R:3:Z:I:1:forces:R:3 stress="-0.016863868046805078 -6.075830746949437e-36 -1.2151661493898874e-35 -6.075830746949437e-36 -0.016863868046805088 -2.9544378362169867e-72 -1.2151661493898874e-35 -2.9544378362169867e-72 -0.01686386804680509" energy=-12.0003334692 Minim_Constant_Volume=T Minim_Hydrostatic_Strain=F pbc="T T T"
Ti       0.00000000      -0.00000000      -0.00000000       22      -0.00000000       0.00000000       0.00000000 
Ti       1.62527474       1.62527474       1.62527474       22       0.00000000      -0.00000000      -0.00000000 
2
Lattice="3.222526111152093 0.0 -1.5669878684104437e-36 0.0 3.222526111152093 0.0 -1.5669878684104437e-36 0.0 3.222526111152093" Properties=species:S:1:pos:R:3:Z:I:1:forces:R:3 stress="-0.03572647413604218 6.181962138902158e-36 -2.345244032874443e-36 6.181962138902158e-36 -0.03572647413604218 3.006045363328062e-72 -2.345244032874443e-36 3.006045363328062e-72 -0.03572647413604219" energy=-11.9773036256 Minim_Constant_Volume=T Minim_Hydrostatic_Strain=F pbc="T T T"
Ti       0.00000000      -0.00000000      -0.00000000       22       0.00000000       0.00000000       0.00000000 
Ti       1.61126306       1.61126306       1.61126306       22       0.00000000       0.00000000       0.00000000 
2
Lattice="3.1940066852853017 0.0 -1.553119991842233e-36 0.0 3.1940066852853017 0.0 -1.553119991842233e-36 0.0 3.1940066852853017" Properties=species:S:1:pos:R:3:Z:I:1:forces:R:3 stress="-0.05642963229433548 1.7466175827269618e-52 -1.3041648377468039e-53 1.7466175827269618e-52 -0.056429632294335445 -1.2529895408860502e-17 -1.3041648377468039e-53 -1.2529895408860502e-17 -0.05642963229433543" energy=-11.9368672053 Minim_Constant_Volume=T Minim_Hydrostatic_Strain=F pbc="T T T"
Ti       0.00000000      -0.00000000      -0.00000000       22       0.00000000      -0.00000000      -0.00000000 
Ti       1.59700334       1.59700334       1.59700334       22      -0.00000000       0.00000000      -0.00000000 
2
Lattice="3.1649686535984247 0.0 -1.5389999376343288e-36 0.0 3.1649686535984247 0.0 -1.5389999376343288e-36 0.0 3.1649686535984247" Properties=species:S:1:pos:R:3:Z:I:1:forces:R:3 stress="-0.07988059374380826 -1.2305000438781515e-33 -4.1016668129271715e-34 -1.2305000438781515e-33 -0.0798805937438083 -5.983438378242446e-70 -4.1016668129271715e-34 -5.983438378242446e-70 -0.0798805937438083" energy=-11.8771015235 Minim_Constant_Volume=T Minim_Hydrostatic_Strain=F pbc="T T T"
Ti       0.00000000      -0.00000000      -0.00000000       22       0.00000000       0.00000000       0.00000000 
Ti       1.58248433       1.58248433       1.58248433       22       0.00000000       0.00000000       0.00000000 
2
Lattice="3.1353877766551403 0.0 -1.5246159191009624e-36 0.0 3.1353877766551403 0.0 -1.5246159191009624e-36 0.0 3.1353877766551403" Properties=species:S:1:pos:R:3:Z:I:1:forces:R:3 stress="-0.10470394717269645 9.062686394592286e-53 -8.760075623743412e-53 9.062686394592286e-53 -0.10470394717269645 -4.406828415257562e-89 -8.760075623743412e-53 -4.406828415257562e-89 -0.10470394717269645" energy=-11.7959001586 Minim_Constant_Volume=T Minim_Hydrostatic_Strain=F pbc="T T T"
Ti       0.00000000      -0.00000000      -0.00000000       22       0.00000000       0.00000000      -0.00000000 
Ti       1.56769389       1.56769389       1.56769389       22      -0.00000000       0.00000000       0.00000000 
2
Lattice="3.3051907731348336 0.0 -1.6071844465002e-36 0.0 3.3051907731348336 0.0 -1.6071844465002e-36 0.0 3.3051907731348336" Properties=species:S:1:pos:R:3:Z:I:1:forces:R:3 stress="0.015082653472445877 -5.876600497075146e-36 -5.876600497075144e-36 -5.876600497075146e-36 0.015082653472445886 3.3490218315103987e-18 -5.876600497075144e-36 3.3490218315103987e-18 0.01508265347244588" energy=-12.0008067686 Minim_Constant_Volume=T Minim_Hydrostatic_Strain=F pbc="T T T"
Ti       0.00000000      -0.00000000      -0.00000000       22       0.00000000       0.00000000       0.00000000 
Ti       1.65259539       1.65259539       1.65259539       22       0.00000000       0.00000000       0.00000000 
2
Lattice="3.331846688573 0.0 -1.6201461711448602e-36 0.0 3.331846688573 0.0 -1.6201461711448602e-36 0.0 3.331846688573" Properties=species:S:1:pos:R:3:Z:I:1:forces:R:3 stress="0.02938524112778419 4.561150598940848e-56 1.2303575236859109e-55 4.561150598940848e-56 0.02938524112778419 2.217908376226655e-92 1.2303575236859109e-55 2.217908376226655e-92 0.02938524112778419" energy=-11.9811515875 Minim_Constant_Volume=T Minim_Hydrostatic_Strain=F pbc="T T T"
Ti       0.00000000      -0.00000000      -0.00000000       22       0.00000000       0.00000000       0.00000000 
Ti       1.66592334       1.66592334       1.66592334       22       0.00000000       0.00000000       0.00000000 
2
Lattice="3.3580827820823242 0.0 -1.63290375287595e-36 0.0 3.3580827820823242 0.0 -1.63290375287595e-36 0.0 3.3580827820823242" Properties=species:S:1:pos:R:3:Z:I:1:forces:R:3 stress="0.04227287162299595 3.1602152835107475e-52 1.5408523933980482e-52 3.1602152835107475e-52 0.042272871622995964 1.5366885604710289e-88 1.5408523933980482e-52 1.5366885604710289e-88 0.042272871622995964" energy=-11.9494670393 Minim_Constant_Volume=T Minim_Hydrostatic_Strain=F pbc="T T T"
Ti       0.00000000      -0.00000000      -0.00000000       22       0.00000000       0.00000000       0.00000000 
Ti       1.67904139       1.67904139       1.67904139       22       0.00000000       0.00000000       0.00000000 
2
Lattice="3.3839152032592055 0.0 -1.6454650446078484e-36 0.0 3.3839152032592055 0.0 -1.6454650446078484e-36 0.0 3.3839152032592055" Properties=species:S:1:pos:R:3:Z:I:1:forces:R:3 stress="0.053170578339259776 -2.511645266963981e-33 -2.511645266963981e-33 -2.511645266963981e-33 0.053170578339259776 -1.2213144369762762e-69 -2.511645266963981e-33 -1.2213144369762762e-69 0.05317057833925977" energy=-11.9072876487 Minim_Constant_Volume=T Minim_Hydrostatic_Strain=F pbc="T T T"
Ti       0.00000000      -0.00000000      -0.00000000       22       0.00000000       0.00000000       0.00000000 
Ti       1.69195760       1.69195760       1.69195760       22       0.00000000       0.00000000       0.00000000 
2
Lattice="3.4093591300879753 0.0 -1.6578374267981518e-36 0.0 3.4093591300879753 0.0 -1.6578374267981518e-36 0.0 3.4093591300879753" Properties=species:S:1:pos:R:3:Z:I:1:forces:R:3 stress="0.06221663408771396 1.3807458232379398e-36 2.7614916464758792e-36 1.3807458232379398e-36 0.06221663408771396 6.714024587371689e-73 2.7614916464758792e-36 6.714024587371689e-73 0.06221663408771396" energy=-11.8563698072 Minim_Constant_Volume=T Minim_Hydrostatic_Strain=F pbc="T T T"
Ti       0.00000000      -0.00000000      -0.00000000       22       0.00000000       0.00000000      -0.00000000 
Ti       1.70467957       1.70467957       1.70467957       22       0.00000000       0.00000000       0.00000000 
2
Lattice="3.434428847547858 0.0 -1.6700278456711485e-36 0.0 3.434428847547858 0.0 -1.6700278456711485e-36 0.0 3.434428847547858" Properties=species:S:1:pos:R:3:Z:I:1:forces:R:3 stress="0.07041353193306835 5.442647206994879e-36 2.1770588827979516e-35 5.442647206994879e-36 0.07041353193306835 2.6465455519148275e-72 2.1770588827979516e-35 2.6465455519148275e-72 0.07041353193306835" energy=-11.7979596934 Minim_Constant_Volume=T Minim_Hydrostatic_Strain=F pbc="T T T"
Ti       0.00000000      -0.00000000      -0.00000000       22       0.00000000       0.00000000       0.00000000 
Ti       1.71721442       1.71721442       1.71721442       22       0.00000000       0.00000000       0.00000000 
