30
Lattice="4.495692956949034 0.0 0.0 2.247846478474517 3.893384308332643 0.0 0.0 0.0 37.53038446187308" Properties=species:S:1:pos:R:3:Z:I:1 energy=-326.252964676 pbc="T T T"
W       0.05689402       0.00659642       2.08881107       74 
W       2.34081230       1.36576397       3.88978655       74 
W       4.51447789       2.65741589       2.95509226       74 
W       0.09335822       0.06481412       4.82021756       74 
W       2.34100384       1.36479358       6.61160986       74 
W       4.52127639       2.61808872       5.67878799       74 
W       0.01840002       0.07249494       7.60596996       74 
W       2.26216349       1.31986692       9.36928115       74 
W       4.57039873       2.69363774       8.50155588       74 
W       0.06951428       0.09484549      10.26690016       74 
W       2.26885301       1.36434265      12.17441184       74 
W       4.55952714       2.59891944      11.20531411       74 
W       0.00851882       0.08752703      13.10762591       74 
W       2.32068774       1.30032142      14.92307381       74 
W       4.58487361       2.62211056      14.02296996       74 
W       0.04075717       0.04151688      15.78498432       74 
W       2.34641248       1.32912423      17.61845379       74 
W       4.49684246       2.67575414      16.73325963       74 
W       0.04681286       0.07794490      18.54658025       74 
W       2.25868292       1.38596977      20.44766161       74 
W       4.55587256       2.66002327      19.48585410       74 
W       0.07320430       0.09590194      21.32439861       74 
W       2.32821780       1.34652303      23.18282952       74 
W       4.55521063       2.64286623      22.23763888       74 
W       0.04748054       0.04260348      24.10328991       74 
W       2.25955256       1.31115021      25.89371714       74 
W       4.50858188       2.66586696      25.00058040       74 
W       0.02901462       0.05350909      26.85820834       74 
W       2.30594919       1.30646054       1.12634040       74 
W       4.51485583       2.66825978       0.26116055       74 
30
Lattice="4.495692956949034 0.0 0.0 2.247846478474517 3.893384308332643 0.0 0.0 0.0 37.53038446187308" Properties=species:S:1:pos:R:3:Z:I:1:forces:R:3 pbc="T T T"
W       0.05571662       0.01360290       2.06386436       74      -0.06353338       0.39190874      -1.41379967 
W       2.33089558       1.35957574       3.87233134       74      -0.46490904      -0.29662549      -0.84697497 
W       4.52658164       2.65158020       2.94647176       74       0.58854915      -0.28570103      -0.39028435 
W       0.08546555       0.06240794       4.81836773       74      -0.40362350      -0.13434320      -0.25494011 
W       2.33018466       1.36351842       6.62029279       74      -0.52161489      -0.06950519       0.40453644 
W       4.53455076       2.62899842       5.69840821       74       0.57048219       0.52060160       0.86547886 
W       0.02819542       0.06932661       7.58897818       74       0.49981293      -0.15671227      -0.75107843 
W       2.27269417       1.33234996       9.37619808       74       0.50637155       0.58331341       0.34632085 
W       4.56238543       2.68396979       8.49006417       74      -0.37006206      -0.49672912      -0.47324205 
W       0.06335299       0.08215241      10.28301514       74      -0.32046664      -0.58445104       0.72849741 
W       2.27658634       1.36067323      12.16798033       74       0.37995869      -0.20933834      -0.33102606 
W       4.55256210       2.61440747      11.21455596       74      -0.31580785       0.75837013       0.42021387 
W       0.02005974       0.07412931      13.09459300       74       0.56822080      -0.63306673      -0.60001372 
W       2.31249772       1.31310729      14.91811971       74      -0.36348900       0.60645090      -0.25841664 
W       4.57262054       2.62735946      14.01306783       74      -0.60256687       0.26188255      -0.51391539 
W       0.04567069       0.04031694      15.79573891       74       0.18684393       0.00183551       0.50481704 
W       2.33134403       1.33779938      17.62855382       74      -0.72026537       0.40383212       0.50012894 
W       4.51198902       2.66554817      16.73463952       74       0.74552042      -0.47049965       0.05644352 
W       0.04788147       0.07421364      18.55256109       74       0.05190187      -0.19054176       0.31481802 
W       2.27104079       1.38224088      20.43504533       74       0.60862507      -0.21682760      -0.59507081 
W       4.55366347       2.66273397      19.48509804       74      -0.11175539       0.10296683       0.00312104 
W       0.06757268       0.08786974      21.32151538       74      -0.27585500      -0.38813723      -0.13041195 
W       2.32153628       1.34893091      23.19406884       74      -0.38443370       0.11525945       0.58311662 
W       4.55418883       2.64853919      22.24007557       74      -0.05829034       0.25338506       0.22520302 
W       0.04629102       0.04298989      24.10880721       74      -0.06174144       0.04728977       0.32846462 
W       2.26253548       1.31791958      25.89630841       74       0.19727377       0.40154261       0.16315469 
W       4.51357604       2.65938311      25.01931726       74       0.27478389      -0.33197284       1.10930412 
W       0.02754497       0.05274879      26.82426409       74      -0.08689852      -0.07446853      -2.16891398 
W       2.30224642       1.31354579       1.13622747       74      -0.20272647       0.41235119       0.46857639 
W       4.51677691       2.66307361       0.28783424       74       0.14985359      -0.32207326       1.70653251 
30
Lattice="4.495692956949034 0.0 0.0 2.247846478474517 3.893384308332643 0.0 0.0 0.0 37.53038446187308" Properties=species:S:1:pos:R:3:Z:I:1:forces:R:3 pbc="T T T"
W       0.05195513       0.03676049       1.98038216       74      -0.02970825       0.07292396      -0.20153681 
W       2.30314067       1.34189186       3.82187526       74       0.11844376       0.05289270       0.22253971 
W       4.56163822       2.63456964       2.92311966       74      -0.19852153       0.07199320       0.19591348 
W       0.06149610       0.05446892       4.80378227       74       0.00469215      -0.02426869      -0.44924106 
W       2.29909872       1.35940565       6.64445302       74       0.15531234      -0.03374498      -0.16422369 
W       4.56880385       2.66004369       5.75028194       74      -0.27507625      -0.13280015      -0.46760740 
W       0.05788100       0.06000177       7.54396739       74      -0.05623911       0.04794613       0.32246566 
W       2.30287657       1.36718077       9.39679018       74      -0.14811090      -0.21485316      -0.05011181 
W       4.54027168       2.65447921       8.46156475       74       0.14457678       0.03522256       0.39914475 
W       0.04434047       0.04722084      10.32660799       74       0.04538412       0.23629260      -0.33586283 
W       2.29920410       1.34831650      12.14832946       74      -0.11441964      -0.02208589       0.04578096 
W       4.53366804       2.65956022      11.23969183       74       0.21159688      -0.22469438      -0.20553886 
W       0.05387989       0.03635415      13.05873095       74      -0.16417383       0.26743130       0.22189023 
W       2.29072034       1.34928569      14.90279099       74       0.15381216      -0.15318072      -0.01911515 
W       4.53675357       2.64293415      13.98257464       74       0.15961883      -0.04635319       0.06697649 
W       0.05698929       0.04020745      15.82587395       74      -0.15576433       0.16945767      -0.13138270 
W       2.28839661       1.36191885      17.65831094       74       0.24231125      -0.16367882      -0.06742208 
W       4.55636274       2.63742944      16.73804028       74      -0.21449490       0.21172023      -0.02498798 
W       0.05097319       0.06289725      18.57122579       74       0.01110627       0.01217748       0.00288454 
W       2.30726512       1.36945478      20.39953338       74      -0.12632728      -0.07261976       0.26099233 
W       4.54702259       2.66897199      19.48513892       74       0.00720353      -0.12830372       0.13208072 
W       0.05114887       0.06474174      21.31371189       74       0.05006541       0.05790644       0.13666949 
W       2.29885421       1.35580290      23.22866876       74      -0.07967447      -0.03929507      -0.02487273 
W       4.55074809       2.66371361      22.25310163       74      -0.05515093      -0.11251401       0.31952255 
W       0.04262761       0.04570305      24.12815318       74      -0.00201348       0.11418967       0.00356563 
W       2.27409608       1.34157407      25.90589153       74       0.08466893       0.04109304       0.06265370 
W       4.52982724       2.63967003      25.08467159       74       0.01983117       0.05609711       0.20126727 
W       0.02242503       0.04844946      26.69695874       74       0.03513885      -0.03650778      -0.95876343 
W       2.29025359       1.33786062       1.16418226       74       0.06229709       0.03011138      -0.19949169 
W       4.52549764       2.64414364       0.38799388       74       0.11359160      -0.07258151       0.70552994 
30
Lattice="4.495692956949034 0.0 0.0 2.247846478474517 3.893384308332643 0.0 0.0 0.0 37.53038446187308" Properties=species:S:1:pos:R:3:Z:I:1:forces:R:3 pbc="T T T"
W       0.05147531       0.03814390       1.97629125       74      -0.02161090       0.05893656      -0.13540496 
W       2.30419778       1.34226350       3.82396346       74       0.08059238       0.05179017       0.15759199 
W       4.55956866       2.63523668       2.92532811       74      -0.16126421       0.07013718       0.17251285 
W       0.06111614       0.05400444       4.79754407       74       0.00031822      -0.02201357      -0.35829522 
W       2.30063328       1.35886471       6.64268104       74       0.11653703      -0.02904630      -0.13913116 
W       4.56580860       2.65883605       5.74497501       74      -0.21773877      -0.11643303      -0.34570936 
W       0.05764639       0.06048991       7.54740753       74      -0.05261036       0.02514856       0.22137863 
W       2.30142726       1.36492950       9.39648559       74      -0.10852529      -0.17063877      -0.04618166 
W       4.54180559       2.65442978       8.46639500       74       0.11572842       0.03143613       0.27417614 
W       0.04463491       0.04975091      10.32290686       74       0.04787783       0.17196283      -0.24635929 
W       2.29805192       1.34782227      12.14861077       74      -0.08436094      -0.00303993       0.02965181 
W       4.53620079       2.65731802      11.23738537       74       0.15359700      -0.17508752      -0.15003709 
W       0.05225152       0.03929460      13.06103784       74      -0.12128669       0.20267175       0.15798190 
W       2.29235737       1.34790873      14.90224833       74       0.11400297      -0.10481150      -0.00478253 
W       4.53827562       2.64258717      13.98296300       74       0.12470784      -0.02693239       0.05143128 
W       0.05514941       0.04245050      15.82468573       74      -0.11598598       0.13016656      -0.10355591 
W       2.29089210       1.36015439      17.65795274       74       0.18532963      -0.12115218      -0.05144581 
W       4.55423948       2.63976920      16.73778254       74      -0.16842430       0.16950878      -0.01283250 
W       0.05119228       0.06285707      18.57159460       74       0.00928211       0.00046273       0.01131542 
W       2.30621535       1.36825288      20.40242970       74      -0.10886359      -0.06270463       0.23043839 
W       4.54699761       2.66736260      19.48690524       74       0.01168603      -0.11137260       0.12285187 
W       0.05152041       0.06507663      21.31544858       74       0.03200301       0.03413281       0.12101629 
W       2.29740410       1.35539590      23.22894578       74      -0.05866046      -0.02860201      -0.01693888 
W       4.54992296       2.66249419      22.25761607       74      -0.05217486      -0.09478777       0.28612172 
W       0.04253314       0.04729794      24.12846593       74      -0.00334048       0.09147820      -0.01473199 
W       2.27540527       1.34247451      25.90688459       74       0.06766066       0.03333594       0.02595542 
W       4.53036709       2.64009129      25.08839418       74       0.01444959       0.05802958       0.12856736 
W       0.02284743       0.04793188      26.68204693       74       0.04459094      -0.02753326      -0.79948775 
W       2.29093262       1.33863047       1.16198086       74       0.04804612       0.02175290      -0.13887486 
W       4.52714538       2.64289240       0.39903771       74       0.10842206      -0.05681765       0.57215100 
30
Lattice="4.495692956949034 0.0 0.0 2.247846478474517 3.893384308332643 0.0 0.0 0.0 37.53038446187308" Properties=species:S:1:pos:R:3:Z:I:1:forces:R:3 pbc="T T T"
W       0.04960330       0.04431053       1.95958557       74       0.00916933      -0.00281644       0.14546554 
W       2.30680805       1.34398425       3.82973883       74      -0.04875130       0.04171578      -0.03917655 
W       4.55192397       2.63837125       2.93473367       74      -0.03328003       0.05900941       0.18174772 
W       0.05877299       0.05176511       4.77216811       74      -0.00954785      -0.00314357       0.01138452 
W       2.30552466       1.35644908       6.63560328       74      -0.01462402      -0.01448126      -0.05751567 
W       4.55474116       2.65402590       5.72682816       74      -0.01931399      -0.05694328       0.04572381 
W       0.05689667       0.06131925       7.55764782       74      -0.04036645      -0.04704788      -0.10522100 
W       2.29701152       1.35679955       9.39533897       74       0.02535460      -0.01941013      -0.04072888 
W       4.54744724       2.65374196       8.48203476       74       0.01346456       0.01916015      -0.13854044 
W       0.04615402       0.05791203      10.31060505       74       0.05198527      -0.04360706       0.04220253 
W       2.29445817       1.34653995      12.14878684       74       0.01746603       0.05417683      -0.01445414 
W       4.54485290       2.64971225      11.22970387       74      -0.03308648      -0.00818500       0.03065236 
W       0.04721126       0.04943385      13.06811037       74       0.01459829      -0.00856335      -0.04341295 
W       2.29779692       1.34446114      14.90041832       74      -0.02240812       0.05361749       0.04213668 
W       4.54332511       2.64226593      13.98363838       74       0.00975702       0.03767323       0.01142385 
W       0.04861140       0.05110195      15.82073820       74       0.02556410      -0.00803182      -0.00448207 
W       2.29930672       1.35431230      17.65740133       74      -0.00608924       0.01777796       0.01159550 
W       4.54699074       2.64851135      16.73731904       74      -0.01427842       0.01882301       0.03202855 
W       0.05217471       0.06178390      18.57414906       74      -0.00211153      -0.03133832       0.03932182 
W       2.30233125       1.36279172      20.41470973       74      -0.04948221      -0.02402046       0.12267674 
W       4.54714410       2.66043852      19.49519435       74       0.01930557      -0.04365070       0.08231337 
W       0.05206502       0.06502830      21.32304712       74      -0.02660265      -0.04262755       0.06577324 
W       2.29137001       1.35411968      23.23110042       74       0.02647923       0.00798689      -0.01647968 
W       4.54596801       2.65762561      22.27819013       74      -0.03546130      -0.02850614       0.09233972 
W       0.04194572       0.05378738      24.12898751       74      -0.00699050       0.00109206      -0.27198984 
W       2.28094841       1.34670498      25.90945043       74      -0.00316608      -0.01774935      -0.09634280 
W       4.53283532       2.64221269      25.10272722       74      -0.00808724       0.06546696      -0.17978581 
W       0.02555359       0.04585771      26.61673350       74       0.07836546       0.02479901       0.08863369 
W       2.29324761       1.34215884       1.15522675       74       0.01985781      -0.02696860       0.05625412 
W       4.53519372       2.63748322       0.44643156       74       0.06226812       0.02576956      -0.09378461 
30
Lattice="4.495692956949034 0.0 0.0 2.247846478474517 3.893384308332643 0.0 0.0 0.0 37.53038446187308" Properties=species:S:1:pos:R:3:Z:I:1:forces:R:3 pbc="T T T"
W       0.04988838       0.04347846       1.96412113       74       0.00506742       0.01079402       0.07750130 
W       2.30673074       1.34488059       3.83019645       74      -0.05092863       0.02604719      -0.03819499 
W       4.55096691       2.63941793       2.93728891       74      -0.01503556       0.04181084       0.09202798 
W       0.05931247       0.05200233       4.77367370       74      -0.02290559      -0.00419559      -0.00006485 
W       2.30587587       1.35645562       6.63456246       74      -0.02612202      -0.01847582      -0.04128184 
W       4.55410964       2.65273738       5.72691085       74      -0.00953823      -0.03417957       0.04586818 
W       0.05569741       0.06089346       7.55694602       74      -0.01888243      -0.04243746      -0.09572227 
W       2.29680212       1.35604357       9.39436479       74       0.03104182      -0.00639407      -0.03024892 
W       4.54792317       2.65471816       8.48028447       74       0.00343857      -0.00354371      -0.11154001 
W       0.04721896       0.05784894      10.31060734       74       0.03227520      -0.04361214       0.03395722 
W       2.29429473       1.34758722      12.14905655       74       0.02316570       0.03421103      -0.01820838 
W       4.54452257       2.64884115      11.22981243       74      -0.02514858       0.01034123       0.02346113 
W       0.04680251       0.04981201      13.06811772       74       0.02341855      -0.01234500      -0.04042510 
W       2.29780847       1.34443534      14.90140517       74      -0.02194609       0.05590345       0.02563136 
W       4.54409985       2.64240051      13.98448109       74      -0.00475444       0.03916328      -0.00178965 
W       0.04893220       0.05065764      15.82011891       74       0.02027442       0.00236339       0.01033181 
W       2.29990963       1.35420421      17.65686775       74      -0.01925852       0.01889493       0.03145766 
W       4.54604483       2.64907444      16.73767280       74       0.00575213       0.00608516       0.03250566 
W       0.05203271       0.06168749      18.57411727       74      -0.00264736      -0.03005680       0.04744062 
W       2.30098215       1.36299997      20.41665803       74      -0.02622116      -0.03157577       0.08453228 
W       4.54754708       2.65999844      19.49593566       74       0.00761500      -0.03604513       0.07339993 
W       0.05208713       0.06502664      21.32378192       74      -0.02974776      -0.04539705       0.04501944 
W       2.29249225       1.35411192      23.22997764       74       0.00527374       0.00729830      -0.00323271 
W       4.54574815       2.65708672      22.27825845       74      -0.03105717      -0.02068926       0.07701971 
W       0.04196521       0.05347599      24.12495556       74      -0.00688422       0.00471093      -0.14299817 
W       2.28041440       1.34574962      25.90786740       74       0.01242864       0.00887401      -0.09102412 
W       4.53224744       2.64344683      25.09827280       74       0.00298151       0.04316576      -0.11030422 
W       0.02658416       0.04636221      26.62351651       74       0.06232313       0.01450034      -0.06909863 
W       2.29369424       1.34109549       1.15556767       74       0.01319266      -0.00099457       0.06432711 
W       4.53547859       2.63847971       0.44094909       74       0.06283251       0.00578499       0.03006847 
30
Lattice="4.495692956949034 0.0 0.0 2.247846478474517 3.893384308332643 0.0 0.0 0.0 37.53038446187308" Properties=species:S:1:pos:R:3:Z:I:1:forces:R:3 pbc="T T T"
W       0.05017144       0.04378555       1.96910521       74       0.00072728       0.01821545       0.01849895 
W       2.30463896       1.34658480       3.82901258       74      -0.03170978       0.00262236       0.01078942 
W       4.54940990       2.64194574       2.94361971       74      -0.00091932       0.01089350      -0.01796731 
W       0.05854162       0.05182462       4.77318533       74      -0.03367826       0.00129421       0.01674208 
W       2.30521852       1.35557453       6.63186867       74      -0.02895832      -0.02418069      -0.02080138 
W       4.55281418       2.65031074       5.72802705       74      -0.00630861      -0.00175511       0.00953712 
W       0.05417910       0.05888517       7.55295234       74       0.00549291      -0.02390101      -0.04064292 
W       2.29780248       1.35495749       9.39251059       74       0.01932137      -0.00172976      -0.02498141 
W       4.54862024       2.65511642       8.47528331       74      -0.00595481      -0.03352666      -0.03251722 
W       0.04928115       0.05633142      10.31153989       74       0.00280813      -0.01795181      -0.01854712 
W       2.29501420       1.34959024      12.14842155       74       0.01855433       0.00042115      -0.00829992 
W       4.54365515       2.64841695      11.23055675       74       0.00787318       0.01729408      -0.01381542 
W       0.04733074       0.04995524      13.06670103       74       0.01554030       0.00914021      -0.00699588 
W       2.29712433       1.34665517      14.90296504       74      -0.00521850       0.03280232       0.00256858 
W       4.54457293       2.64412487      13.98489276       74      -0.00874527       0.02915349      -0.00363061 
W       0.04966786       0.05091264      15.81999990       74       0.00337551       0.02104058       0.02769039 
W       2.29983636       1.35468331      17.65782749       74      -0.01808099       0.00280594       0.05530858 
W       4.54539577       2.65009065      16.73919869       74       0.01735502      -0.00506363       0.03457271 
W       0.05190697       0.06028848      18.57621730       74      -0.00765536      -0.01640895       0.04980365 
W       2.29891711       1.36151712      20.42202254       74      -0.00077897      -0.03525908       0.02139229 
W       4.54814030       2.65786567      19.49988919       74      -0.01700583      -0.01925951       0.04406491 
W       0.05086170       0.06308451      21.32657023       74      -0.02343666      -0.03441872       0.00319367 
W       2.29306809       1.35437041      23.22935754       74      -0.01785369       0.00022907      -0.01429157 
W       4.54409147       2.65567298      22.28268919       74      -0.01639615      -0.01093734      -0.00438813 
W       0.04164568       0.05382618      24.11587928       74      -0.00395947       0.00515103       0.01543723 
W       2.28086766       1.34571631      25.90337017       74       0.02982198       0.03188495      -0.08195973 
W       4.53216516       2.64610624      25.09176935       74       0.01386751       0.00992337      -0.03675129 
W       0.02996595       0.04719429      26.62170101       74       0.03396926       0.01124888      -0.13629477 
W       2.29462517       1.34056580       1.15809113       74       0.01723945       0.02469818       0.05910480 
W       4.53868364       2.63905630       0.44113274       74       0.04069509      -0.00441221       0.09384122 
30
Lattice="4.495692956949034 0.0 0.0 2.247846478474517 3.893384308332643 0.0 0.0 0.0 37.53038446187308" Properties=species:S:1:pos:R:3:Z:I:1:forces:R:3 pbc="T T T"
W       0.05021955       0.04484566       1.97072041       74       0.00127054       0.01440624       0.01499397 
W       2.30268197       1.34753556       3.82829941       74      -0.01423403      -0.00689743       0.04442659 
W       4.54844178       2.64360437       2.94754191       74       0.00154368      -0.00459813      -0.05258936 
W       0.05710728       0.05154752       4.77181035       74      -0.03168381       0.00549814       0.03889038 
W       2.30423578       1.35444903       6.62979276       74      -0.02385589      -0.02359155      -0.00714782 
W       4.55174195       2.64893649       5.72846022       74      -0.00732134       0.01082986      -0.01183183 
W       0.05365166       0.05721744       7.54991954       74       0.01063173      -0.01236825      -0.00424545 
W       2.29882544       1.35423334       9.39111631       74       0.00736170      -0.00405435      -0.02374902 
W       4.54897544       2.65439790       8.47225248       74      -0.00902663      -0.04079746       0.00787649 
W       0.05043035       0.05516606      10.31157342       74      -0.00822267      -0.00065373      -0.04621995 
W       2.29582294       1.35058831      12.14770936       74       0.01177595      -0.01160689      -0.00124192 
W       4.54354190       2.64855413      11.23060707       74       0.02501535       0.01327901      -0.03345924 
W       0.04800809       0.05034048      13.06572736       74       0.00671313       0.02320451       0.01285489 
W       2.29667572       1.34875868      14.90368069       74       0.00600869       0.01418790      -0.00161336 
W       4.54458500       2.64581178      13.98479906       74      -0.00422112       0.01967620       0.00300438 
W       0.04995387       0.05187843      15.82056122       74      -0.00432053       0.02464119       0.03374829 
W       2.29944949       1.35496513      17.65968109       74      -0.01173908      -0.00798873       0.05723123 
W       4.54541305       2.65074907      16.74074393       74       0.01457670      -0.00750818       0.03389847 
W       0.05177555       0.05899729      18.57867990       74      -0.01134732      -0.00676212       0.04147371 
W       2.29786482       1.35959603      20.42583715       74       0.00469399      -0.03008677      -0.01175644 
W       4.54811265       2.65597553      19.50342569       74      -0.02794032      -0.00925234       0.01975319 
W       0.04957333       0.06106824      21.32859415       74      -0.01590635      -0.02253891      -0.01901922 
W       2.29255518       1.35453302      23.22916884       74      -0.02051424      -0.00526174      -0.03199560 
W       4.54257910       2.65455896      22.28632964       74      -0.00580427      -0.00640267      -0.06297775 
W       0.04131529       0.05447732      24.11060786       74      -0.00094931       0.00160669       0.06349893 
W       2.28205399       1.34667731      25.89949433       74       0.03177262       0.03166190      -0.07073727 
W       4.53266187       2.64776634      25.08859828       74       0.01579870      -0.00414372      -0.02151058 
W       0.03267700       0.04778951      26.61404945       74       0.01898815       0.01606711      -0.08101397 
W       2.29551466       1.34108970       1.16057435       74       0.02178687       0.02710968       0.04909681 
W       4.54176858       2.63890110       0.44601432       74       0.01912153       0.00239061       0.05996373 
30
Lattice="4.495692956949034 0.0 0.0 2.247846478474517 3.893384308332643 0.0 0.0 0.0 37.53038446187308" Properties=species:S:1:pos:R:3:Z:I:1:forces:R:3 pbc="T T T"
W       0.05024671       0.04588912       1.97161560       74       0.00393605       0.00898794       0.02478448 
W       2.30120005       1.34797390       3.82862356       74      -0.00210662      -0.00840752       0.05537408 
W       4.54785267       2.64453157       2.94926397       74       0.00036282      -0.01031283      -0.04534295 
W       0.05557047       0.05142332       4.77132994       74      -0.02382251       0.00573790       0.04626388 
W       2.30319727       1.35329531       6.62837601       74      -0.01597496      -0.01836540       0.00446840 
W       4.55089428       2.64830217       5.72840937       74      -0.00987907       0.01168040      -0.01831293 
W       0.05357024       0.05595584       7.54800729       74       0.00676923      -0.00698012       0.01580862 
W       2.29959666       1.35368906       9.38987053       74      -0.00137452      -0.00799352      -0.02013378 
W       4.54904570       2.65314586       8.47065492       74      -0.00849514      -0.03470401       0.02170330 
W       0.05097059       0.05445607      10.31072203       74      -0.00876080       0.00714855      -0.04849358 
W       2.29653622       1.35096223      12.14719546       74       0.00620075      -0.01015641       0.00066031 
W       4.54399044       2.64888069      11.23000162       74       0.02806868       0.00671679      -0.03544165 
W       0.04856183       0.05103609      13.06535298       74       0.00186774       0.02682056       0.01826761 
W       2.29652522       1.35035301      14.90405369       74       0.01117772       0.00341342       0.00361166 
W       4.54450323       2.64723440      13.98474361       74       0.00178028       0.01206208       0.00938383 
W       0.05000275       0.05301399      15.82155418       74      -0.00618885       0.01958224       0.03345340 
W       2.29900443       1.35497749      17.66190294       74      -0.00595356      -0.01219212       0.04435214 
W       4.54568639       2.65106758      16.74230956       74       0.00653584      -0.00518346       0.02938530 
W       0.05150838       0.05803789      18.58100240       74      -0.01281470      -0.00246303       0.02687880 
W       2.29732850       1.35777933      20.42803708       74       0.00090432      -0.02093346      -0.02677846 
W       4.54757623       2.65456970      19.50603613       74      -0.02832983      -0.00495822       0.00038501 
W       0.04846438       0.05936609      21.32958545       74      -0.00974809      -0.01281178      -0.02486327 
W       2.29175334       1.35453354      23.22855227       74      -0.01451306      -0.00840058      -0.04348031 