2
Lattice="2.9160811175662045 -1.548381542703292e-16 -6.431404948058594e-32 -1.4580405587831018 2.5254003273084495 1.0888215298034841e-31 -1.2456457476655078e-31 1.8034828233778375e-31 4.764402520985646" Properties=species:S:1:pos:R:3:Z:I:1:forces:R:3 stress="-0.00036598337319149063 -3.379659060498379e-20 3.5004760577586735e-34 -3.379659060498379e-20 -0.00036598337319149047 -2.7964101744663968e-30 3.5004760577586735e-34 -2.7964101744663968e-30 0.0009416515102150652" energy=-325.466757934 Minim_Constant_Volume=T Minim_Hydrostatic_Strain=F pbc="T T T"
Si      -0.00000000       0.00000000      -0.00000000       14       0.00000000      -0.00000000      -0.00000000 
Si       0.00000000       1.68360022       2.38220126       14      -0.00000000       0.00000000       0.00000000 
2
Lattice="2.8915750756223244 -1.5353693179054148e-16 -6.37735697303287e-32 -1.4457875378111618 2.504177472438842 1.0796713364436253e-31 -1.235177641426754e-31 1.7883267889834131e-31 4.724363632042032" Properties=species:S:1:pos:R:3:Z:I:1:forces:R:3 stress="-0.08605052027832402 -1.7796534928534754e-17 4.89210499850418e-30 -1.7796534928534754e-17 -0.08605052027832412 -8.470323966131361e-32 4.89210499850418e-30 -8.470323966131361e-32 -0.08722780612184239" energy=-325.427863924 Minim_Constant_Volume=T Minim_Hydrostatic_Strain=F pbc="T T T"
Si      -0.00000000       0.00000000      -0.00000000       14       0.00000000      -0.00000000      -0.00000000 
Si      -0.00000000       1.66945165       2.36218182       14      -0.00000000       0.00000000       0.00000000 
2
Lattice="2.8562495316007532 1.275805270425119e-16 3.0774355367872226e-31 -1.428124765800376 2.4735846539136555 7.183259902342327e-31 4.848408120823332e-31 1.678802702851868e-30 4.717608126936026" Properties=species:S:1:pos:R:3:Z:I:1:forces:R:3 stress="-0.15130503792696412 6.85845475819471e-17 1.2816400490812842e-30 6.85845475819471e-17 -0.1513050379269642 1.8136517191216855e-29 1.2816400490812842e-30 1.8136517191216855e-29 -0.1511550572940686" energy=-325.321258027 Minim_Constant_Volume=T Minim_Hydrostatic_Strain=F pbc="T T T"
Si      -0.00000000       0.00000000      -0.00000000       14      -0.00000000       0.00000000       0.00000000 
Si       0.00000000       1.64905644       2.35880406       14       0.00000000      -0.00000000      -0.00000000 
2
Lattice="2.632628912568035 -4.847181696310749e-15 -1.9805528718020878e-30 -1.316314456284021 2.2799235170213232 -7.167721937928561e-30 -3.398764902328682e-30 -1.5891346958292343e-29 5.3312384832310045" Properties=species:S:1:pos:R:3:Z:I:1:forces:R:3 stress="-0.00012301851362075142 -3.917596396601457e-19 7.255472179151624e-33 -3.917596396601457e-19 -0.00012301851362075142 -5.71253798028392e-32 7.255472179151624e-33 -5.71253798028392e-32 -0.0015726606694928522" energy=-325.213357157 Minim_Constant_Volume=T Minim_Hydrostatic_Strain=F pbc="T T T"
Si       0.00000000      -0.00000000      -0.00000000       14      -0.00000000       0.00000000      -0.00000000 
Si      -0.00000000       1.51994901       2.66561924       14       0.00000000      -0.00000000       0.00000000 
2
Lattice="2.6052813611879264 -4.6818459602180886e-15 -1.8488193462497866e-30 -1.3026406805939668 2.256239842794849 -6.922643228707426e-30 -3.066414865390739e-30 -1.4855174894763745e-29 5.371481578338025" Properties=species:S:1:pos:R:3:Z:I:1:forces:R:3 stress="-0.0048641129533419526 -1.5530077703889037e-17 -1.7618970699239727e-32 -1.5530077703889037e-17 -0.004864112953341946 -3.6720776093336596e-32 -1.7618970699239727e-32 -3.6720776093336596e-32 -0.005278045915918509" energy=-325.212824159 Minim_Constant_Volume=T Minim_Hydrostatic_Strain=F pbc="T T T"
Si       0.00000000      -0.00000000      -0.00000000       14      -0.00000000       0.00000000      -0.00000000 
Si      -0.00000000       1.50415990       2.68574079       14       0.00000000      -0.00000000       0.00000000 
2
Lattice="2.5633235769599065 -4.445864333714552e-15 -1.7204084109508395e-30 -1.2816617884799566 2.2199033357668774 -6.447518438466625e-30 -2.7359720054948083e-30 -1.3252026754112805e-29 5.394458229474631" Properties=species:S:1:pos:R:3:Z:I:1:forces:R:3 stress="-0.033887127636024444 -1.1353866820844828e-16 -4.929429092904165e-30 -1.1353866820844828e-16 -0.03388712763602439 -2.5553139395274886e-29 -4.929429092904165e-30 -2.5553139395274886e-29 -0.034596233005540156" energy=-325.197541164 Minim_Constant_Volume=T Minim_Hydrostatic_Strain=F pbc="T T T"
Si       0.00000000      -0.00000000      -0.00000000       14       0.00000000      -0.00000000       0.00000000 
Si      -0.00000000       1.47993556       2.69722911       14      -0.00000000       0.00000000      -0.00000000 
2
Lattice="2.9411715616783 -2.3108289165706433e-16 -2.1556383457185905e-30 -1.4705857808391496 2.547129289301759 4.052631885454802e-30 -3.541723146511218e-30 5.648313618490356e-30 4.800546146228616" Properties=species:S:1:pos:R:3:Z:I:1:forces:R:3 stress="0.0956661308849278 -3.8164139702786455e-18 -1.3570172800201791e-31 -3.8164139702786455e-18 0.09566613088492769 -6.77681314921234e-31 -1.3570172800201791e-31 -6.77681314921234e-31 0.09553816161032022" energy=-325.425175444 Minim_Constant_Volume=T Minim_Hydrostatic_Strain=F pbc="T T T"
Si      -0.00000000       0.00000000       0.00000000       14       0.00000000      -0.00000000      -0.00000000 
Si       0.00000000       1.69808619       2.40027307       14      -0.00000000       0.00000000       0.00000000 
2
Lattice="2.964892047422088 -2.329465702362414e-16 -2.173023522875411e-30 -1.4824460237110433 2.5676718325459857 4.0853162749396834e-30 -3.570287067943031e-30 5.69386714702624e-30 4.839262448231425" Properties=species:S:1:pos:R:3:Z:I:1:forces:R:3 stress="0.19239142139381188 -6.796392173241384e-17 2.407723778621354e-30 -6.796392173241384e-17 0.1923914213938116 8.39667447221329e-30 2.407723778621354e-30 8.39667447221329e-30 0.190783249808963" energy=-325.298842698 Minim_Constant_Volume=T Minim_Hydrostatic_Strain=F pbc="T T T"
Si      -0.00000000       0.00000000       0.00000000       14      -0.00000000       0.00000000       0.00000000 
Si       0.00000000       1.71178122       2.41963122       14       0.00000000      -0.00000000      -0.00000000 
2
Lattice="2.9862429308668097 -1.6757522186692128e-16 -8.03314364360048e-30 -1.4931214654334042 2.5861622400023565 -4.906495664550797e-30 -1.3128114408737755e-29 -1.6786261923333944e-29 4.883883112032664" Properties=species:S:1:pos:R:3:Z:I:1:forces:R:3 stress="0.2806345328960731 7.907093717238493e-17 6.301612446579532e-30 7.907093717238493e-17 0.2806345328960725 1.5726965533010345e-29 6.301612446579532e-30 1.5726965533010345e-29 0.2802883701986565" energy=-325.090757781 Minim_Constant_Volume=T Minim_Hydrostatic_Strain=F pbc="T T T"
Si      -0.00000000      -0.00000000       0.00000000       14       0.00000000      -0.00000000      -0.00000000 
Si       0.00000000       1.72410816       2.44194156       14       0.00000000      -0.00000000       0.00000000 
2
Lattice="3.0092162746575064 -1.6886438797693817e-16 -8.094943093583912e-30 -1.5046081373287525 2.6060577393349735 -4.944241626389397e-30 -1.3229109770675034e-29 -1.691539963083234e-29 4.921455114165035" Properties=species:S:1:pos:R:3:Z:I:1:forces:R:3 stress="0.34940762592257923 -1.1348888361637433e-16 7.88868485273186e-30 -1.1348888361637433e-16 0.3494076259225786 1.9736456739913034e-29 7.88868485273186e-30 1.9736456739913034e-29 0.3506290776466682" energy=-324.813180645 Minim_Constant_Volume=T Minim_Hydrostatic_Strain=F pbc="T T T"
Si      -0.00000000      -0.00000000       0.00000000       14      -0.00000000       0.00000000      -0.00000000 
Si       0.00000000       1.73737183       2.46072756       14      -0.00000000      -0.00000000       0.00000000 
2
Lattice="3.0352522612937682 7.554536566511596e-16 -3.838627155450481e-29 -1.5176261306468826 2.62860556517457 -6.676920098886781e-29 -6.281430272771068e-29 -1.6232906726938094e-28 4.947307879686317" Properties=species:S:1:pos:R:3:Z:I:1:forces:R:3 stress="0.4028322929951388 -4.417612239690744e-16 2.2252354086952164e-29 -4.417612239690744e-16 0.40283229299513745 6.245521542265082e-29 2.2252354086952164e-29 6.245521542265082e-29 0.4017284052023139" energy=-324.482058396 Minim_Constant_Volume=T Minim_Hydrostatic_Strain=F pbc="T T T"
Si       0.00000000      -0.00000000       0.00000000       14      -0.00000000       0.00000000      -0.00000000 
Si       0.00000000       1.75240371       2.47365394       14       0.00000000      -0.00000000       0.00000000 
2
Lattice="3.0575749636949427 7.610096255471732e-16 -3.866858262536013e-29 -1.5287874818474698 2.6479375925351074 -6.726025374986746e-29 -6.327626926808987e-29 -1.635229131667793e-28 4.983692757112666" Properties=species:S:1:pos:R:3:Z:I:1:forces:R:3 stress="0.43808846643682114 -2.2299725862771736e-16 2.3678420587161818e-29 -2.2299725862771736e-16 0.4380884664368198 6.627577536187346e-29 2.3678420587161818e-29 6.627577536187346e-29 0.43901870259795756" energy=-324.111982143 Minim_Constant_Volume=T Minim_Hydrostatic_Strain=F pbc="T T T"
Si       0.00000000      -0.00000000       0.00000000       14      -0.00000000       0.00000000      -0.00000000 
Si       0.00000000       1.76529173       2.49184638       14       0.00000000      -0.00000000       0.00000000 
