30
Lattice="4.497285328473964 0.0 0.0 2.2486426642369826 3.894763342525497 0.0 0.0 0.0 37.54013570616563" Properties=species:S:1:pos:R:3:Z:I:1:forces:R:3 energy=-326.684032152 pbc="T T T"
W       0.05689402       0.00659642       2.08881107       74      -0.14036946       0.40183459      -0.89145456 
W       2.34160848       1.36622365       3.89043663       74      -0.67188841      -0.35570740       0.13758563 
W       4.51607026       2.65833524       2.95541730       74       0.87299319      -0.38600170      -0.84134264 
W       0.09335822       0.06481412       4.82119269       74      -0.56629141      -0.19197207      -0.03220897 
W       2.34180002       1.36525326       6.61323507       74      -0.75921806      -0.09796135       0.47222558 
W       4.52286876       2.61900808       5.68008816       74       0.90791847       0.72735646       0.88203826 
W       0.01840002       0.07249494       7.60792020       74       0.69336775      -0.19014208      -1.14862642 
W       2.26295968       1.32032660       9.37188148       74       0.75656410       0.90564196       0.42700615 
W       4.57199110       2.69455709       8.50383117       74      -0.57719121      -0.69464838      -0.74594398 
W       0.06951428       0.09484549      10.26982554       74      -0.44754906      -0.89628330       1.07300656 
W       2.26964919       1.36480233      12.17798729       74       0.49961480      -0.25443844      -0.42683853 
W       4.56111951       2.59983879      11.20856452       74      -0.45305497       1.06446769       0.63500487 
W       0.00851882       0.08752703      13.11152640       74       0.78676064      -0.88696133      -0.85444217 
W       2.32148393       1.30078110      14.92762439       74      -0.52094204       0.84272212      -0.35537108 
W       4.58646598       2.62302991      14.02719550       74      -0.82135754       0.34038885      -0.62412844 
W       0.04075717       0.04151688      15.78985994       74       0.27741127      -0.06582559       0.73350070 
W       2.34720867       1.32958391      17.62397950       74      -1.02487877       0.59106805       0.66359717 
W       4.49843483       2.67667349      16.73846029       74       1.03963939      -0.68615382       0.06808078 
W       0.04681286       0.07794490      18.55243100       74       0.11188106      -0.27505179       0.38371100 
W       2.25947911       1.38642945      20.45416244       74       0.85254199      -0.24272885      -0.74486661 
W       4.55746493       2.66094263      19.49202988       74      -0.18151530       0.18764801      -0.02204920 
W       0.07320430       0.09590194      21.33122448       74      -0.40579412      -0.54047089       0.10173447 
W       2.32901398       1.34698271      23.19030548       74      -0.48262116       0.12644731      -0.42529378 
W       4.55680300       2.64378559      22.24478979       74      -0.04851833       0.39664833       0.20230978 
W       0.04748054       0.04260348      24.11109090       74      -0.10216443       0.11901924       0.47197018 
W       2.26034874       1.31160989      25.90216822       74       0.22481828       0.60742494       0.89003283 
W       4.51017425       2.66678631      25.00870644       74       0.33762944      -0.46204227       0.51098501 
W       0.02901462       0.05350909      26.86698446       74      -0.07818987      -0.24777089      -1.59876745 
W       2.30674538       1.30692021       1.12601536       74      -0.32639056       0.51894403      -0.28025557 
W       4.51644821       2.66917914       0.26051047       74       0.24679430      -0.35545143       1.33880044 
30
Lattice="4.497285328473964 0.0 0.0 2.2486426642369826 3.894763342525497 0.0 0.0 0.0 37.54013570616563" Properties=species:S:1:pos:R:3:Z:I:1:forces:R:3 energy=-327.106514483 pbc="T T T"
W       0.05488874       0.01233692       2.07607600       74      -0.07927154       0.32226216      -0.82644027 
W       2.33201008       1.36114212       3.89240214       74      -0.44851265      -0.24938885       0.07289566 
W       4.52854159       2.65282093       2.94339812       74       0.57327102      -0.28077184      -0.66668981 
W       0.08526834       0.06207166       4.82073256       74      -0.41540669      -0.14416678      -0.05995196 
W       2.33095405       1.36385381       6.61998115       74      -0.52560846      -0.07964354       0.35959706 
W       4.53583903       2.62939888       5.69268871       74       0.57984496       0.50925277       0.57645807 
W       0.02830528       0.06977862       7.59151126       74       0.50474599      -0.13643147      -0.74637671 
W       2.27376773       1.33326434       9.37798157       74       0.50732214       0.59046164       0.31757168 
W       4.56374552       2.68463355       8.49317483       74      -0.37862952      -0.49479197      -0.46846767 
W       0.06312072       0.08204145      10.28515420       74      -0.32057087      -0.58730814       0.70426419 
W       2.27678655       1.36116750      12.17188960       74       0.35793275      -0.20787092      -0.32259471 
W       4.55464730       2.61504548      11.21763602       74      -0.29856429       0.74909150       0.41677686 
W       0.01975825       0.07485616      13.09932009       74       0.55828546      -0.60925191      -0.57805361 
W       2.31404190       1.31281999      14.92254766       74      -0.34147687       0.58359953      -0.25856127 
W       4.57473230       2.62789261      14.01827938       74      -0.58864272       0.24996572      -0.48379214 
W       0.04472019       0.04057651      15.80033853       74       0.16510102       0.00446569       0.49916737 
W       2.33256754       1.33802774      17.63345946       74      -0.71050148       0.39923381       0.48665526 
W       4.51328682       2.66687130      16.73943287       74       0.73475527      -0.46118801       0.04921440 
W       0.04841116       0.07401558      18.55791258       74       0.07145957      -0.19701128       0.30850711 
W       2.27165828       1.38296189      20.44352149       74       0.60481769      -0.20908163      -0.53680719 
W       4.55487186       2.66362331      19.49171489       74      -0.12568552       0.10372375       0.01592541 
W       0.06740724       0.08818092      21.33267783       74      -0.28031878      -0.38248607       0.08071782 
W       2.32211939       1.34878910      23.18422985       74      -0.37642444       0.10426156      -0.28217246 
W       4.55610988       2.64945199      22.24767993       74      -0.05425791       0.25808843       0.11423146 
W       0.04602105       0.04430375      24.11783334       74      -0.07754734       0.10441309       0.50991199 
W       2.26356043       1.32028739      25.91488297       74       0.18978360       0.43712010       0.71302529 
W       4.51499753       2.66018571      25.01600622       74       0.25803551      -0.32203744       0.50271073 
W       0.02789762       0.04996950      26.84414492       74      -0.05298904      -0.17286557      -1.58944373 
W       2.30208265       1.31433370       1.12201170       74      -0.22441154       0.39995299      -0.17562026 
W       4.51997384       2.66410126       0.27963619       74       0.19346466      -0.28159732       1.26734141 
30
Lattice="4.497285328473964 0.0 0.0 2.2486426642369826 3.894763342525497 0.0 0.0 0.0 37.54013570616563" Properties=species:S:1:pos:R:3:Z:I:1:forces:R:3 energy=-327.694693258 pbc="T T T"
W       0.05011781       0.03127294       2.02789289       74       0.05194888       0.10856836      -0.73952794 
W       2.30534922       1.34636640       3.89681248       74       0.08443154       0.00744275      -0.17625924 
W       4.56265710       2.63622520       2.90419634       74      -0.21704180       0.04693974       0.02185728 
W       0.06072775       0.05356726       4.81732554       74       0.02030177       0.00526862      -0.13798510 
W       2.29978702       1.35917764       6.64117580       74       0.15816113      -0.01866457      -0.02458140 
W       4.57041352       2.65957367       5.72700527       74      -0.26907014      -0.11207693      -0.20231397 
W       0.05813807       0.06170748       7.54706148       74      -0.07674009       0.00603599       0.27776675 
W       2.30391508       1.36842046       9.39672637       74      -0.14454728      -0.22252985      -0.01947845 
W       4.54121154       2.65534840       8.46520766       74       0.15724755       0.04832783       0.26175949 
W       0.04415399       0.04708538      10.32706659       74       0.04787855       0.23447799      -0.26168283 
W       2.29796356       1.34896602      12.15286714       74      -0.06621671      -0.01779465       0.02148010 
W       4.53688404       2.65941662      11.24243940       74       0.15663505      -0.19331053      -0.17588443 
W       0.05280946       0.03871048      13.06499025       74      -0.12701487       0.19854085       0.16558102 
W       2.29371799       1.34742501      14.90726501       74       0.09674751      -0.09843851      -0.00750292 
W       4.53990617       2.64265860      13.98979511       74       0.11755223      -0.02317587       0.00987428 
W       0.05461610       0.04064470      15.82997162       74      -0.09264948       0.14183672      -0.10782628 
W       2.29044073       1.36174028      17.66220962       74       0.20709341      -0.14596793      -0.02118352 
W       4.55679666       2.63946983      16.74234296       74      -0.18140611       0.17498332       0.00054218 
W       0.05267206       0.06235930      18.57603772       74      -0.03046161       0.02912054       0.07252419 
W       2.30746481       1.37072523      20.41177345       74      -0.11385371      -0.07985672       0.11837538 
W       4.54741917       2.66987672      19.49253667       74       0.04225185      -0.12152784       0.09958389 
W       0.05078275       0.06553331      21.33742374       74       0.05699852       0.03942300       0.04316236 
W       2.29996477       1.35490580      23.16744968       74      -0.06309914       0.03812513       0.14920370 
W       4.55297376       2.66482076      22.25455501       74      -0.08075107      -0.10942678      -0.08604558 
W       0.04144951       0.05040863      24.14734988       74      -0.00570968       0.03561377       0.34420743 
W       2.27467988       1.34614210      25.95678270       74       0.07119612      -0.05799239      -0.10182523 
W       4.53020282       2.64109834      25.04523019       74       0.04555635       0.07337142       0.55250492 
W       0.02475104       0.03972432      26.75179197       74       0.01883847       0.05561904      -1.10322370 
W       2.28876962       1.33788986       1.11152563       74       0.08038304       0.02329212       0.27467647 
W       4.53135689       2.64754293       0.35344789       74       0.05533972      -0.06622464       0.75222112 
30
Lattice="4.497285328473964 0.0 0.0 2.2486426642369826 3.894763342525497 0.0 0.0 0.0 37.54013570616563" Properties=species:S:1:pos:R:3:Z:I:1:forces:R:3 energy=-327.749310867 pbc="T T T"
W       0.05046948       0.03417251       2.01398619       74       0.03929246       0.08352354      -0.71378613 
W       2.30452818       1.34536854       3.89462000       74       0.08361463       0.02428607      -0.21556631 
W       4.56213436       2.63569984       2.90179669       74      -0.21193950       0.06782116       0.10627111 
W       0.05923894       0.05303441       4.81514852       74       0.03353968       0.00875282      -0.12207783 
W       2.29975627       1.35858397       6.64232240       74       0.15375437      -0.01474691      -0.05077087 
W       4.56921137       2.66019021       5.72672288       74      -0.25510729      -0.13126945      -0.19144415 
W       0.05919360       0.06120016       7.54764512       74      -0.09476482       0.00414513       0.26406253 
W       2.30411577       1.36791116       9.39779348       74      -0.14292271      -0.21870727      -0.03614035 
W       4.54175964       2.65388587       8.46680369       74       0.15219073       0.06696996       0.23328538 
W       0.04345529       0.04779483      10.32649834       74       0.06880570       0.21584500      -0.25008154 
W       2.29855605       1.34787348      12.15182314       74      -0.07308736       0.00812283       0.03264235 
W       4.53780030       2.65989369      11.24179428       74       0.14349654      -0.20433086      -0.16834402 
W       0.05340125       0.03888319      13.06479110       74      -0.13612729       0.19959999       0.15917919 
W       2.29354933       1.34859234      14.90603614       74       0.09601843      -0.10255269       0.01455284 
W       4.53905957       2.64339265      13.98793614       74       0.13379501      -0.02549844       0.03772867 
W       0.05407945       0.04259073      15.83065064       74      -0.08447096       0.11865350      -0.11483427 
W       2.29030375       1.36141551      17.66399238       74       0.21049488      -0.13846794      -0.04605658 
W       4.55737541       2.63993116      16.74256481       74      -0.19442259       0.17683710       0.00353704 
W       0.05256353       0.06192543      18.57834995       74      -0.02470724       0.02490609       0.04377590 
W       2.30845526       1.36874488      20.41117466       74      -0.13719980      -0.06123168       0.14715726 
W       4.54747699       2.66863847      19.49397269       74       0.04341361      -0.11721385       0.08686043 
W       0.05036258       0.06442544      21.33838697       74       0.05490637       0.04463794       0.04473505 
W       2.29748502       1.35588020      23.16833911       74      -0.03206432       0.02332563       0.20050527 
W       4.55160955       2.66442124      22.25388398       74      -0.06982138      -0.10639725      -0.05332895 
W       0.04103977       0.05133013      24.15411334       74      -0.00158241       0.02413062       0.21208456 
W       2.27646831       1.34719576      25.95817526       74       0.05451978      -0.07171137      -0.22585838 
W       4.53195132       2.64074060      25.05512940       74       0.02620367       0.08694956       0.56961536 
W       0.02478685       0.03977133      26.72998607       74       0.02783226       0.06308921      -0.94831053 
W       2.28894047       1.33989528       1.11471633       74       0.08959474      -0.00453273       0.32412373 
W       4.53296521       2.64542062       0.36910238       74       0.04674484      -0.04493572       0.65648323 
30
Lattice="4.497285328473964 0.0 0.0 2.2486426642369826 3.894763342525497 0.0 0.0 0.0 37.54013570616563" Properties=species:S:1:pos:R:3:Z:I:1:forces:R:3 energy=-327.846883213 pbc="T T T"
W       0.05122709       0.03886273       1.98665200       74       0.01077494       0.04525465      -0.65117469 
W       2.30428180       1.34445133       3.88854088       74       0.05524271       0.04126834      -0.26232414 
W       4.55906938       2.63602783       2.90084722       74      -0.15779078       0.08373225       0.23691180 
W       0.05771702       0.05244099       4.81091361       74       0.03334509       0.00752881      -0.08899800 
W       2.30142571       1.35763989       6.64297350       74       0.10534606      -0.01210945      -0.07681585 
W       4.56482726       2.65929709       5.72431678       74      -0.18280249      -0.12833847      -0.12605324 
W       0.05932845       0.06050883       7.55125432       74      -0.09254362      -0.00601050       0.17947430 
W       2.30280554       1.36478013       9.39864251       74      -0.10244850      -0.16558891      -0.04809531 
W       4.54419091       2.65284029       8.47131001       74       0.11096541       0.06961868       0.13816509 
W       0.04354338       0.05099097      10.32302690       74       0.08291590       0.13545256      -0.17463430 
W       2.29844809       1.34680308      12.15090406       74      -0.06006573       0.03992897       0.03326132 
W       4.54056092       2.65805568      11.23907439       74       0.09261333      -0.16597416      -0.11828521 
W       0.05253445       0.04143331      13.06623371       74      -0.11037427       0.15426004       0.10758785 
W       2.29437200       1.34902057      14.90476193       74       0.07188969      -0.07393791       0.04032459 
W       4.53964048       2.64408972      13.98617467       74       0.11999891      -0.01348605       0.05778388 
W       0.05249543       0.04634086      15.83021936       74      -0.05569608       0.06967155      -0.09470231 
W       2.29257864       1.35947317      17.66563067       74       0.16125878      -0.09383628      -0.05959000 
W       4.55576542       2.64262497      16.74295699       74      -0.16194148       0.14066221       0.01083746 
W       0.05220972       0.06155069      18.58169953       74      -0.01055691       0.00587765       0.00604572 
W       2.30795700       1.36553213      20.41242772       74      -0.13590866      -0.03447491       0.15935501 
W       4.54807449       2.66562616      19.49679903       74       0.03343805      -0.09369466       0.05986559 
W       0.05036795       0.06344347      21.34027708       74       0.03269576       0.03198949       0.03914537 
W       2.29406046       1.35731531      23.17256203       74       0.00684257      -0.00206909       0.27471003 
W       4.54904010       2.66269490      22.25278472       74      -0.04613130      -0.08119027       0.01777328 
W       0.04050337       0.05273312      24.16415303       74       0.00384566       0.00871461      -0.07987975 
W       2.27936768       1.34766363      25.95577491       74       0.02873617      -0.06699890      -0.39824508 
W       4.53444998       2.64141280      25.07575662       74      -0.00059131       0.08715930       0.59368578 
W       0.02527352       0.04066443      26.69085385       74       0.04272844       0.06335767      -0.63813298 
W       2.29033291       1.34226722       1.12360665       74       0.08559419      -0.03254343       0.36517180 
W       4.53564371       2.64221839       0.39712739       74       0.03861948      -0.01422380       0.49683198 
30
Lattice="4.497285328473964 0.0 0.0 2.2486426642369826 3.894763342525497 0.0 0.0 0.0 37.54013570616563" Properties=species:S:1:pos:R:3:Z:I:1:forces:R:3 energy=-327.933691469 pbc="T T T"
W       0.05346898       0.05557428       1.87437632       74      -0.06352189      -0.13983028      -0.12292249 
W       2.30422359       1.34279106       3.85882634       74      -0.07673075       0.06562180      -0.14154151 
W       4.54531890       2.63988196       2.90765095       74       0.07606999       0.09621681       1.01054472 
W       0.05330653       0.05055422       4.79440561       74       0.00020374      -0.00179004       0.00544763 
W       2.30899148       1.35405003       6.64243463       74      -0.10483983      -0.01095737      -0.13119368 
W       4.54620535       2.65269721       5.71407245       74       0.11977066      -0.06142321       0.18209518 
W       0.05728341       0.05767062       7.56670710       74      -0.03754684      -0.04418040      -0.19704264 
W       2.29641086       1.35056668       9.39996358       74       0.09175172       0.08389373      -0.06990651 
W       4.55474043       2.65115415       8.48852749       74      -0.07695245       0.03276373      -0.24690996 
W       0.04648127       0.06392752      10.30792140       74       0.08647201      -0.20123604       0.15477307 
W       2.29673086       1.34493484      12.14864219       74       0.01881358       0.11778352       0.01591311 
W       4.55154280       2.64798388      11.22754140       74      -0.10794020       0.04603262       0.10853557 
W       0.04708923       0.05352686      13.07299497       74       0.03180752      -0.05871697      -0.10652227 
W       2.29863620       1.34918649      14.90204318       74      -0.04083589       0.06763020       0.10027362 
W       4.54465614       2.64646170      13.98212376       74       0.01322088       0.04674282       0.09071795 
W       0.04613492       0.06018692      15.82659311       74       0.06448697      -0.10627977       0.01814902 
W       2.30378523       1.35116875      17.66941344       74      -0.08032833       0.09323394      -0.05212056 
W       4.54644850       2.65504122      16.74481017       74       0.02287911      -0.04045833       0.03303266 
W       0.05101352       0.05994023      18.59267717       74       0.03508987      -0.06746889      -0.09861998 
W       2.30248862       1.35399055      20.42156067       74      -0.06516272       0.04950436       0.14805675 
W       4.55082757       2.65307945      19.50770117       74      -0.02206404       0.01740176      -0.03199957 
W       0.05073639       0.06057464      21.34775456       74      -0.06439725      -0.03885044      -0.06571235 
W       2.28321691       1.36163156      23.19694669       74       0.11597859      -0.09558776       0.34347274 
W       4.53935479       2.65501374      22.25123233       74       0.03822867       0.02312583       0.27799590 
W       0.03888662       0.05751485      24.18903892       74       0.02352660      -0.02759144      -2.04220519 
W       2.28966081       1.34757294      25.93187399       74      -0.06725258       0.00033585      -0.63638311 
W       4.54249798       2.64617547      25.16523714       74      -0.09954075       0.04094989       0.35868796 
W       0.02857060       0.04557034      26.54442230       74       0.12140877       0.05045340       1.59626429 
W       2.29746802       1.34897740       1.16580950       74       0.03140345      -0.09385797       0.17769820 
W       4.54591633       2.63140413       0.50495352       74       0.01600139       0.15653863      -0.67857856 
30
Lattice="4.497285328473964 0.0 0.0 2.2486426642369826 3.894763342525497 0.0 0.0 0.0 37.54013570616563" Properties=species:S:1:pos:R:3:Z:I:1:forces:R:3 energy=-328.012506442 pbc="T T T"
W       0.05284625       0.04755919       1.91502077       74      -0.04770460      -0.03194430      -0.35434081 
W       2.30607718       1.34494877       3.86787144       74      -0.06885783       0.03792934      -0.20491994 
W       4.54737213       2.64051218       2.91537483       74       0.05718463       0.05634013       0.35357415 
W       0.05678962       0.05187814       4.80006072       74      -0.02280906      -0.00930369      -0.00591217 
W       2.30849135       1.35552972       6.64010385       74      -0.08377596      -0.01743085      -0.07177275 
W       4.55005556       2.65200962       5.71565581       74       0.07414422      -0.02698746       0.11966162 
W       0.05528197       0.05903206       7.56421841       74      -0.00548771      -0.03916482      -0.13627593 
W       2.29652395       1.35275338       9.39755291       74       0.07052043       0.05571072      -0.02939035 
W       4.55270844       2.65433361       8.48377963       74      -0.05063499      -0.00450218      -0.15430856 
W       0.04756146       0.06144863      10.31023945       74       0.04536115      -0.13374383       0.10388063 
W       2.29566156       1.34717680      12.15104916       74       0.02617105       0.06296129      -0.00686690 
W       4.54880011       2.64791501      11.22990726       74      -0.06611299       0.04928292       0.06879529 
W       0.04634282       0.05223166      13.07307889       74       0.03909568      -0.04586025      -0.08133660 
W       2.29874084       1.34660161      14.90478796       74      -0.03250638       0.06793659       0.05210067 
W       4.54594761       2.64474408      13.98630243       74      -0.01030400       0.04605031       0.03130297 
W       0.04774354       0.05506929      15.82538132       74       0.03870437      -0.04779129       0.02819490 
W       2.30312266       1.35244467      17.66552548       74      -0.06806200       0.06544979      -0.00758382 
W       4.54605564       2.65299506      16.74414000       74       0.03477029      -0.02987567       0.02653470 
W       0.05122026       0.06105923      18.58703150       74       0.02148321      -0.05275698      -0.03497594 
W       2.30095240       1.35905907      20.42205030       74      -0.02504090       0.00540997       0.08069380 
W       4.55038416       2.65679186      19.50391403       74      -0.01817191      -0.00259850      -0.00392045 
W       0.05163829       0.06319463      21.34429976       74      -0.05365513      -0.04592708      -0.01329925 
W       2.28928103       1.35911532      23.19217437       74       0.04784612      -0.05084859       0.27835218 
W       4.54302218       2.65634272      22.25279760       74       0.01188293       0.01388673       0.15742462 
W       0.03995699       0.05532393      24.16436800       74       0.00917419      -0.01052700      -0.62908604 
W       2.28494374       1.34549151      25.93309732       74      -0.01465065       0.02546420      -0.46435493 
W       4.53794846       2.64641069      25.13512645       74      -0.03747878       0.01918961       0.47218134 
W       0.02855072       0.04511908      26.61164400       74       0.06937835       0.03036986       0.04531011 
W       2.29637595       1.34430585       1.15324036       74       0.02027266      -0.03003480       0.22867119 
W       4.54169604       2.63740629       0.45846206       74       0.03926363       0.04331584       0.15166628 
30
Lattice="4.497285328473964 0.0 0.0 2.2486426642369826 3.894763342525497 0.0 0.0 0.0 37.54013570616563" Properties=species:S:1:pos:R:3:Z:I:1:forces:R:3 energy=-328.042285945 pbc="T T T"
W       0.05249049       0.04882290       1.89799520       74      -0.04181216      -0.04358335      -0.25649069 
W       2.30504328       1.34524360       3.86228593       74      -0.06432208       0.03428827      -0.13941950 
W       4.54670256       2.64166503       2.92243658       74       0.06212224       0.04545991       0.32060480 
W       0.05589576       0.05152128       4.79802533       74      -0.02202408      -0.00652465       0.00413926 
W       2.30805510       1.35484845       6.63908056       74      -0.08399603      -0.01768282      -0.07069460 
W       4.54908651       2.65098376       5.71638812       74       0.07935986      -0.01664943       0.12198800 
W       0.05507399       0.05814542       7.56385517       74      -0.00407153      -0.03515798      -0.14179378 
W       2.29691560       1.35205650       9.39731079       74       0.07031913       0.05910820      -0.03170508 
W       4.55308674       2.65399626       8.48339509       74      -0.05478505      -0.01095219      -0.15362695 
W       0.04845373       0.06087762      10.31014286       74       0.03580286      -0.12858680       0.09888065 
W       2.29591768       1.34778681      12.15064897       74       0.02712954       0.05626357      -0.00168923 
W       4.54903860       2.64765980      11.22970593       74      -0.06275142       0.05352326       0.06772877 
W       0.04640670       0.05282976      13.07262203       74       0.04147584      -0.04515746      -0.07393671 
W       2.29872047       1.34766304      14.90518019       74      -0.03221535       0.06431568       0.04635274 
W       4.54623772       2.64572077      13.98620262       74      -0.01439349       0.04290501       0.03349809 
W       0.04760710       0.05595444      15.82543837       74       0.04024200      -0.04973506       0.03189198 
W       2.30326146       1.35250809      17.66596372       74      -0.07205385       0.06233562      -0.00168704 
W       4.54565854       2.65385741      16.74472337       74       0.04158316      -0.03901009       0.02574895 
W       0.05137879       0.06010156      18.58783164       74       0.01558685      -0.04506459      -0.03386634 
W       2.30010780       1.35780495      20.42414640       74      -0.01727259       0.00922940       0.06928745 
W       4.55038293       2.65539500      19.50511114       74      -0.02379741       0.00660707      -0.00410234 
W       0.05087245       0.06216566      21.34469927       74      -0.05135591      -0.04362075      -0.02937284 
W       2.28868823       1.35884377      23.19856372       74       0.04974932      -0.05187286       0.21135238 
W       4.54210402       2.65568944      22.25496130       74       0.01666902       0.01460121       0.14544110 
W       0.03991870       0.05576779      24.15487592       74       0.00964005      -0.01316415      -0.54462669 
W       2.28587026       1.34594938      25.92455174       74      -0.01756240       0.03036243      -0.39195400 
W       4.53827590       2.64713206      25.15131545       74      -0.03983223       0.01207298       0.38283408 
W       0.03002343       0.04609317      26.59933497       74       0.06759739       0.02855248       0.06773051 
W       2.29738634       1.34470752       1.16044413       74       0.01198452      -0.02758524       0.16358011 
W       4.54343201       2.63701243       0.47101958       74       0.03298380       0.05472232       0.08390695 
30
Lattice="4.497285328473964 0.0 0.0 2.2486426642369826 3.894763342525497 0.0 0.0 0.0 37.54013570616563" Properties=species:S:1:pos:R:3:Z:I:1:forces:R:3 energy=-328.087570633 pbc="T T T"
W       0.05051001       0.05164295       1.84073560       74       0.00985226      -0.06731193       0.12925453 
W       2.29976510       1.34653978       3.84415083       74       0.00135816       0.01927464       0.18735750 
W       4.54706768       2.64559504       2.95090206       74       0.02115377       0.00394510       0.14563427 
W       0.05196656       0.05014563       4.79194651       74      -0.00151490       0.00929128       0.02823382 
W       2.30385354       1.35211214       6.63463821       74      -0.02999438      -0.01425123      -0.05462170 
W       4.54893553       2.64844511       5.72263775       74       0.02780504      -0.00036924       0.03886484 
W       0.05508620       0.05444277       7.55795282       74      -0.02091225      -0.00903516      -0.07266907 
W       2.30059014       1.35223866       9.39609747       74       0.01713554       0.01024352      -0.04426850 