40
Lattice="4.499085050680655 -1.6077143511638123e-15 1.2873732442709037e-15 -1.6077143511549184e-15 4.499085049812278 -1.941371443251758e-09 9.103103509556723e-15 -1.372756912348169e-08 41.813335476469426" Properties=species:S:1:pos:R:3:Z:I:1 energy=-437.288436972 pbc="T T T"
W      -0.00000000      -0.00000000      -0.00000000       74 
W       0.00000000       2.24954253       1.59066677       74 
W       2.24954253       2.24954253      -0.00000000       74 
W       2.24954253      -0.00000000       1.59066677       74 
W       0.00000000      -0.00000000       3.18133355       74 
W       0.00000000       2.24954253       4.77200032       74 
W       2.24954253       2.24954253       3.18133355       74 
W       2.24954253      -0.00000001       4.77200032       74 
W       0.00000000      -0.00000000       6.36266709       74 
W       0.00000000       2.24954252       7.95333387       74 
W       2.24954253       2.24954252       6.36266710       74 
W       2.24954253      -0.00000001       7.95333387       74 
W       0.00000000      -0.00000001       9.54400064       74 
W       0.00000000       2.24954252      11.13466742       74 
W       2.24954253       2.24954252       9.54400064       74 
W       2.24954253      -0.00000001      11.13466742       74 
W       0.00000000      -0.00000001      12.72533419       74 
W       0.00000000       2.24954252      14.31600096       74 
W       2.24954253       2.24954252      12.72533419       74 
W       2.24954253      -0.00000001      14.31600096       74 
W       0.00000000      -0.00000001      15.90666774       74 
W       0.00000000       2.24954252      17.49733451       74 
W       2.24954253       2.24954252      15.90666774       74 
W       2.24954253      -0.00000001      17.49733451       74 
W       0.00000000      -0.00000001      19.08800128       74 
W       0.00000000       2.24954252      20.67866806       74 
W       2.24954253       2.24954252      19.08800129       74 
W       2.24954253      -0.00000001      20.67866806       74 
W       0.00000000      -0.00000001      22.26933483       74 
W       0.00000000       2.24954252      23.86000161       74 
W       2.24954253       2.24954252      22.26933483       74 
W       2.24954253      -0.00000001      23.86000161       74 
W       0.00000000      -0.00000001      25.45066838       74 
W       0.00000000       2.24954252      27.04133516       74 
W       2.24954253       2.24954252      25.45066838       74 
W       2.24954253      -0.00000001      27.04133516       74 
W       0.00000000      -0.00000001      28.63200193       74 
W       0.00000000       2.24954251      30.22266870       74 
W       2.24954253       2.24954252      28.63200193       74 
W       2.24954253      -0.00000002      30.22266870       74 
40
Lattice="4.499085050680655 -1.6077143511638123e-15 1.2873732442709037e-15 -1.6077143511549184e-15 4.499085049812278 -1.941371443251758e-09 9.103103509556723e-15 -1.372756912348169e-08 41.813335476469426" Properties=species:S:1:pos:R:3:Z:I:1:forces:R:3 pbc="T T T"
W      -0.00000000      -0.00000000       0.05846552       74      -0.00000004       0.00000000       0.60874982 
W      -0.00000000       2.24954252       1.53360046       74       0.00000001      -0.00000007      -0.24937418 
W       2.24954253       2.24954253       0.05846552       74      -0.00000001       0.00000004       0.60874980 
W       2.24954252      -0.00000000       1.53360046       74       0.00000005       0.00000001      -0.24937425 
W       0.00000000      -0.00000000       3.17635092       74      -0.00000004      -0.00000001      -0.10159109 
W       0.00000000       2.24954252       4.77579319       74      -0.00000003       0.00000004      -0.27915104 
W       2.24954253       2.24954253       3.17635092       74       0.00000003      -0.00000005      -0.10159108 
W       2.24954253      -0.00000000       4.77579319       74       0.00000001       0.00000007      -0.27915106 
W      -0.00000000      -0.00000000       6.36266709       74       0.00000006      -0.00000005      -0.00404803 
W       0.00000000       2.24954252       7.95333387       74       0.00000005       0.00000007       0.03093971 
W       2.24954253       2.24954252       6.36266710       74      -0.00000006      -0.00000007      -0.00404801 
W       2.24954252      -0.00000000       7.95333387       74      -0.00000003       0.00000005       0.03093975 
W      -0.00000000      -0.00000000       9.54400064       74       0.00000000      -0.00000008      -0.00018089 
W      -0.00000000       2.24954252      11.13466742       74      -0.00000001       0.00000004      -0.00071373 
W       2.24954252       2.24954252       9.54400064       74       0.00000004       0.00000001      -0.00018100 
W       2.24954253      -0.00000001      11.13466742       74      -0.00000006      -0.00000002      -0.00071368 
W      -0.00000000      -0.00000000      12.72533419       74       0.00000011       0.00000002      -0.00000002 
W      -0.00000000       2.24954252      14.31600096       74       0.00000010      -0.00000003       0.00000005 
W       2.24954253       2.24954252      12.72533419       74      -0.00000010      -0.00000002      -0.00000002 
W       2.24954253      -0.00000001      14.31600097       74      -0.00000010       0.00000003      -0.00000003 
W      -0.00000000      -0.00000001      15.90666774       74       0.00000004      -0.00000002       0.00000002 
W      -0.00000000       2.24954252      17.49733451       74       0.00000005       0.00000002      -0.00000005 
W       2.24954253       2.24954252      15.90666774       74      -0.00000007      -0.00000001       0.00000004 
W       2.24954252      -0.00000001      17.49733451       74       0.00000006       0.00000004      -0.00000000 
W       0.00000000      -0.00000001      19.08800128       74      -0.00000005      -0.00000006       0.00071369 
W       0.00000000       2.24954252      20.67866806       74       0.00000003       0.00000001       0.00018090 
W       2.24954253       2.24954251      19.08800128       74      -0.00000008       0.00000001       0.00071372 
W       2.24954252      -0.00000001      20.67866806       74       0.00000010       0.00000006       0.00018092 
W       0.00000000      -0.00000001      22.26933483       74      -0.00000008      -0.00000002      -0.03093971 
W       0.00000000       2.24954252      23.86000161       74      -0.00000000      -0.00000005       0.00404801 
W       2.24954253       2.24954252      22.26933484       74      -0.00000003      -0.00000003      -0.03093975 
W       2.24954252      -0.00000001      23.86000161       74       0.00000005       0.00000005       0.00404806 
W      -0.00000000      -0.00000001      25.44687551       74       0.00000001       0.00000003       0.27915097 
W      -0.00000000       2.24954251      27.04631778       74       0.00000006      -0.00000003       0.10159114 
W       2.24954252       2.24954251      25.44687552       74      -0.00000001      -0.00000002       0.27915101 
W       2.24954253      -0.00000001      27.04631778       74      -0.00000006       0.00000001       0.10159115 
W      -0.00000000      -0.00000001      28.68906824       74       0.00000012      -0.00000004       0.24937437 
W      -0.00000000       2.24954252      30.16420318       74       0.00000006       0.00000010      -0.60874985 
W       2.24954253       2.24954251      28.68906824       74      -0.00000011       0.00000002       0.24937422 
W       2.24954253      -0.00000002      30.16420318       74      -0.00000007      -0.00000007      -0.60874988 
40
Lattice="4.499085050680655 -1.6077143511638123e-15 1.2873732442709037e-15 -1.6077143511549184e-15 4.499085049812278 -1.941371443251758e-09 9.103103509556723e-15 -1.372756912348169e-08 41.813335476469426" Properties=species:S:1:pos:R:3:Z:I:1:forces:R:3 pbc="T T T"
W      -0.00000000      -0.00000000       0.09337826       74       0.00000003      -0.00000004       0.12385763 
W      -0.00000000       2.24954252       1.50689635       74       0.00000002       0.00000002       0.32031685 
W       2.24954253       2.24954253       0.09337827       74      -0.00000001      -0.00000002       0.12385761 
W       2.24954253      -0.00000000       1.50689635       74      -0.00000003       0.00000002       0.32031684 
W      -0.00000000      -0.00000000       3.17231255       74       0.00000001      -0.00000000      -0.05048066 
W       0.00000000       2.24954252       4.77124448       74      -0.00000004       0.00000003      -0.35169437 
W       2.24954253       2.24954252       3.17231255       74       0.00000001      -0.00000005      -0.05048064 
W       2.24954253      -0.00000000       4.77124448       74      -0.00000002       0.00000004      -0.35169430 
W       0.00000000      -0.00000000       6.36258053       74      -0.00000004      -0.00000005      -0.04803069 
W       0.00000000       2.24954252       7.95399546       74      -0.00000010       0.00000006       0.00256284 
W       2.24954253       2.24954252       6.36258054       74       0.00000007      -0.00000000      -0.04803076 
W       2.24954252      -0.00000000       7.95399546       74       0.00000006      -0.00000007       0.00256275 
W      -0.00000000      -0.00000001       9.54399678       74      -0.00000008      -0.00000006       0.00492965 
W      -0.00000000       2.24954252      11.13465215       74       0.00000002       0.00000004       0.00363021 
W       2.24954252       2.24954252       9.54399677       74       0.00000009       0.00000006       0.00492969 
W       2.24954253      -0.00000000      11.13465215       74       0.00000003       0.00000003       0.00363019 
W      -0.00000000      -0.00000000      12.72533419       74      -0.00000002       0.00000001      -0.00027426 
W       0.00000000       2.24954252      14.31600096       74       0.00000001       0.00000000      -0.00020254 
W       2.24954253       2.24954252      12.72533419       74      -0.00000004      -0.00000011      -0.00027434 
W       2.24954253      -0.00000001      14.31600097       74       0.00000001       0.00000008      -0.00020259 
W       0.00000000      -0.00000000      15.90666774       74       0.00000002      -0.00000008       0.00020252 
W       0.00000000       2.24954251      17.49733451       74      -0.00000001       0.00000012       0.00027421 
W       2.24954253       2.24954252      15.90666774       74      -0.00000001       0.00000000       0.00020258 
W       2.24954252      -0.00000001      17.49733451       74      -0.00000001      -0.00000008       0.00027428 
W      -0.00000000      -0.00000001      19.08801655       74      -0.00000003      -0.00000010      -0.00363009 
W       0.00000000       2.24954251      20.67867192       74       0.00000004      -0.00000001      -0.00492964 
W       2.24954252       2.24954251      19.08801655       74      -0.00000002       0.00000011      -0.00363016 
W       2.24954252      -0.00000001      20.67867193       74       0.00000008      -0.00000002      -0.00492969 
W       0.00000000      -0.00000001      22.26867324       74      -0.00000004       0.00000000      -0.00256291 
W       0.00000000       2.24954251      23.86008817       74      -0.00000000       0.00000006       0.04803081 
W       2.24954252       2.24954251      22.26867324       74      -0.00000001       0.00000007      -0.00256282 
W       2.24954252      -0.00000001      23.86008817       74      -0.00000001      -0.00000012       0.04803080 
W      -0.00000000      -0.00000001      25.45142422       74      -0.00000003      -0.00000008       0.35169430 
W      -0.00000000       2.24954251      27.05035616       74       0.00000001       0.00000004       0.05048068 
W       2.24954252       2.24954251      25.45142422       74       0.00000003       0.00000011       0.35169426 
W       2.24954253      -0.00000001      27.05035616       74      -0.00000001      -0.00000009       0.05048072 
W      -0.00000000      -0.00000001      28.71577235       74       0.00000000      -0.00000002      -0.32031681 
W      -0.00000000       2.24954252      30.12929044       74      -0.00000003       0.00000004      -0.12385765 
W       2.24954253       2.24954251      28.71577235       74       0.00000000       0.00000012      -0.32031680 
W       2.24954253      -0.00000002      30.12929043       74       0.00000003      -0.00000007      -0.12385767 
40
Lattice="4.499085050680655 -1.6077143511638123e-15 1.2873732442709037e-15 -1.6077143511549184e-15 4.499085049812278 -1.941371443251758e-09 9.103103509556723e-15 -1.372756912348169e-08 41.813335476469426" Properties=species:S:1:pos:R:3:Z:I:1:forces:R:3 pbc="T T T"
W       0.00000000      -0.00000001       0.09902250       74       0.00000005      -0.00000007       0.21979835 
W      -0.00000000       2.24954252       1.52696498       74       0.00000008       0.00000006      -0.04143598 
W       2.24954253       2.24954253       0.09902251       74      -0.00000004       0.00000008       0.21979838 
W       2.24954252       0.00000000       1.52696498       74      -0.00000003      -0.00000009      -0.04143598 
W       0.00000000      -0.00000000       3.16945683       74      -0.00000006      -0.00000006      -0.01075635 
W      -0.00000000       2.24954252       4.75063452       74      -0.00000001      -0.00000001       0.04696743 
W       2.24954253       2.24954252       3.16945683       74      -0.00000001       0.00000008      -0.01075642 
W       2.24954253      -0.00000000       4.75063452       74      -0.00000001      -0.00000005       0.04696742 
W      -0.00000000      -0.00000000       6.35990495       74       0.00000006       0.00000005      -0.11297218 
W      -0.00000000       2.24954252       7.95423808       74       0.00000010      -0.00000012      -0.10253892 
W       2.24954253       2.24954252       6.35990495       74      -0.00000006       0.00000003      -0.11297223 
W       2.24954253      -0.00000001       7.95423808       74      -0.00000006       0.00000006      -0.10253886 
W      -0.00000000      -0.00000001       9.54426945       74       0.00000008       0.00000008      -0.00464292 
W      -0.00000000       2.24954252      11.13485106       74       0.00000006       0.00000006       0.00700261 
W       2.24954253       2.24954252       9.54426945       74      -0.00000007      -0.00000004      -0.00464288 
W       2.24954253      -0.00000000      11.13485106       74      -0.00000008      -0.00000009       0.00700252 
W      -0.00000000      -0.00000000      12.72531899       74      -0.00000000      -0.00000010       0.00282219 
W       0.00000000       2.24954252      14.31598974       74       0.00000005       0.00000003       0.00100807 
W       2.24954252       2.24954251      12.72531898       74       0.00000000       0.00000016       0.00282225 
W       2.24954253      -0.00000000      14.31598973       74      -0.00000002      -0.00000008       0.00100812 
W       0.00000000      -0.00000001      15.90667896       74      -0.00000001       0.00000004      -0.00100801 
W       0.00000000       2.24954252      17.49734971       74      -0.00000004      -0.00000010      -0.00282224 
W       2.24954253       2.24954252      15.90667897       74      -0.00000002      -0.00000003      -0.00100807 
W       2.24954252      -0.00000001      17.49734972       74       0.00000003       0.00000011      -0.00282228 
W      -0.00000000      -0.00000001      19.08781764       74       0.00000003       0.00000006      -0.00700264 
W       0.00000000       2.24954251      20.67839925       74      -0.00000010       0.00000001       0.00464296 
W       2.24954252       2.24954252      19.08781764       74       0.00000005      -0.00000007      -0.00700257 
W       2.24954253      -0.00000001      20.67839925       74       0.00000001      -0.00000003       0.00464294 
W      -0.00000000      -0.00000001      22.26843062       74       0.00000000       0.00000003       0.10253893 
W       0.00000000       2.24954252      23.86276376       74      -0.00000003      -0.00000009       0.11297208 
W       2.24954252       2.24954252      22.26843062       74       0.00000004      -0.00000002       0.10253885 
W       2.24954252      -0.00000002      23.86276376       74       0.00000001       0.00000014       0.11297216 
W      -0.00000000      -0.00000002      25.47203418       74       0.00000006       0.00000009      -0.04696729 
W       0.00000000       2.24954251      27.05321188       74      -0.00000001      -0.00000010       0.01075630 
W       2.24954253       2.24954252      25.47203418       74      -0.00000003      -0.00000012      -0.04696722 
W       2.24954253      -0.00000002      27.05321188       74      -0.00000000       0.00000010       0.01075624 
W       0.00000000      -0.00000001      28.69570372       74      -0.00000006       0.00000010       0.04143595 
W      -0.00000000       2.24954252      30.12364619       74      -0.00000003       0.00000005      -0.21979836 
W       2.24954253       2.24954252      28.69570372       74       0.00000002      -0.00000001       0.04143594 
W       2.24954253      -0.00000002      30.12364619       74       0.00000006      -0.00000012      -0.21979830 
40
Lattice="4.499085050680655 -1.6077143511638123e-15 1.2873732442709037e-15 -1.6077143511549184e-15 4.499085049812278 -1.941371443251758e-09 9.103103509556723e-15 -1.372756912348169e-08 41.813335476469426" Properties=species:S:1:pos:R:3:Z:I:1:forces:R:3 pbc="T T T"
W       0.00000000      -0.00000001       0.11089943       74       0.00000006      -0.00000004       0.09412511 
W      -0.00000000       2.24954252       1.52490237       74       0.00000001      -0.00000002       0.04525179 
W       2.24954253       2.24954253       0.11089943       74      -0.00000009       0.00000002       0.09412513 
W       2.24954252      -0.00000000       1.52490237       74      -0.00000001       0.00000004       0.04525187 
W      -0.00000000      -0.00000000       3.16786350       74       0.00000003      -0.00000001       0.01635361 
W      -0.00000000       2.24954252       4.74597366       74       0.00000004      -0.00000000       0.08104288 
W       2.24954253       2.24954252       3.16786350       74      -0.00000001      -0.00000001       0.01635357 
W       2.24954252      -0.00000000       4.74597367       74      -0.00000001      -0.00000002       0.08104286 
W      -0.00000000      -0.00000000       6.35763731       74       0.00000007       0.00000009      -0.11061801 
W      -0.00000000       2.24954252       7.95291852       74       0.00000008      -0.00000011      -0.10734465 
W       2.24954253       2.24954252       6.35763731       74      -0.00000008      -0.00000006      -0.11061801 
W       2.24954253      -0.00000001       7.95291852       74      -0.00000006       0.00000015      -0.10734459 
W      -0.00000000      -0.00000001       9.54427249       74       0.00000012       0.00000015      -0.01909741 
W       0.00000000       2.24954252      11.13499808       74       0.00000002      -0.00000006      -0.00036102 
W       2.24954253       2.24954252       9.54427249       74      -0.00000015      -0.00000016      -0.01909742 
W       2.24954253      -0.00000000      11.13499808       74      -0.00000003      -0.00000000      -0.00036095 
W      -0.00000000      -0.00000000      12.72535480       74       0.00000006      -0.00000003       0.00376736 
W       0.00000000       2.24954252      14.31600107       74      -0.00000006      -0.00000000       0.00174671 
W       2.24954252       2.24954251      12.72535480       74      -0.00000001       0.00000009       0.00376745 
W       2.24954253      -0.00000000      14.31600107       74       0.00000000      -0.00000008       0.00174678 
W       0.00000000      -0.00000001      15.90666763       74      -0.00000002       0.00000010      -0.00174675 
W      -0.00000000       2.24954252      17.49731390       74      -0.00000004      -0.00000016      -0.00376737 
W       2.24954253       2.24954252      15.90666763       74       0.00000003      -0.00000000      -0.00174670 
W       2.24954252      -0.00000001      17.49731390       74       0.00000003       0.00000008      -0.00376739 
W      -0.00000000      -0.00000001      19.08767062       74       0.00000008       0.00000007       0.00036095 
W       0.00000000       2.24954251      20.67839621       74      -0.00000002       0.00000006       0.01909742 
W       2.24954252       2.24954252      19.08767062       74      -0.00000001      -0.00000005       0.00036091 
W       2.24954253      -0.00000001      20.67839622       74      -0.00000016       0.00000002       0.01909743 
W      -0.00000000      -0.00000001      22.26975018       74       0.00000011      -0.00000005       0.10734470 
W       0.00000000       2.24954252      23.86503139       74      -0.00000003      -0.00000006       0.11061796 
W       2.24954252       2.24954252      22.26975018       74       0.00000004      -0.00000007       0.10734464 
W       2.24954252      -0.00000001      23.86503139       74      -0.00000003       0.00000009       0.11061786 
W      -0.00000000      -0.00000001      25.47669503       74       0.00000003       0.00000013      -0.08104280 
W       0.00000000       2.24954251      27.05480520       74       0.00000004      -0.00000009      -0.01635367 
W       2.24954253       2.24954252      25.47669503       74       0.00000001      -0.00000017      -0.08104272 
W       2.24954253      -0.00000002      27.05480520       74      -0.00000004       0.00000017      -0.01635372 
W      -0.00000000      -0.00000001      28.69776634       74       0.00000005       0.00000003      -0.04525198 
W      -0.00000000       2.24954253      30.11176926       74      -0.00000000       0.00000017      -0.09412495 
W       2.24954253       2.24954252      28.69776634       74      -0.00000006      -0.00000008      -0.04525193 
W       2.24954253      -0.00000003      30.11176926       74      -0.00000000      -0.00000014      -0.09412495 
40
Lattice="4.499085050680655 -1.6077143511638123e-15 1.2873732442709037e-15 -1.6077143511549184e-15 4.499085049812278 -1.941371443251758e-09 9.103103509556723e-15 -1.372756912348169e-08 41.813335476469426" Properties=species:S:1:pos:R:3:Z:I:1:forces:R:3 pbc="T T T"
W       0.00000000      -0.00000001       0.11901954       74      -0.00000006      -0.00000003       0.02308229 
W       0.00000000       2.24954252       1.52587348       74      -0.00000006      -0.00000004       0.07675261 
W       2.24954252       2.24954253       0.11901954       74       0.00000004       0.00000007       0.02308217 
W       2.24954252       0.00000000       1.52587348       74       0.00000005      -0.00000010       0.07675267 
W       0.00000000      -0.00000000       3.16722928       74       0.00000008       0.00000001       0.03692887 
W      -0.00000000       2.24954252       4.74392032       74       0.00000001       0.00000000       0.08168332 
W       2.24954253       2.24954252       3.16722928       74      -0.00000003       0.00000010       0.03692900 
W       2.24954252      -0.00000000       4.74392033       74       0.00000000      -0.00000003       0.08168328 
W      -0.00000000      -0.00000000       6.35428047       74       0.00000007      -0.00000004      -0.07971977 
W      -0.00000000       2.24954252       7.95026581       74       0.00000002       0.00000003      -0.08747839 
W       2.24954253       2.24954252       6.35428046       74      -0.00000008       0.00000004      -0.07971973 
W       2.24954253      -0.00000000       7.95026581       74      -0.00000005      -0.00000000      -0.08747837 
W      -0.00000000      -0.00000001       9.54388696       74       0.00000011       0.00000007      -0.03854669 
W       0.00000000       2.24954252      11.13505248       74      -0.00000007      -0.00000003      -0.01300365 
W       2.24954253       2.24954252       9.54388696       74      -0.00000005      -0.00000008      -0.03854671 
W       2.24954253      -0.00000000      11.13505248       74      -0.00000006       0.00000001      -0.01300366 
W      -0.00000000      -0.00000000      12.72544505       74      -0.00000002      -0.00000002       0.00190008 
W       0.00000000       2.24954252      14.31604103       74      -0.00000013       0.00000006       0.00162939 
W       2.24954252       2.24954252      12.72544504       74       0.00000009       0.00000004       0.00190014 
W       2.24954253      -0.00000000      14.31604103       74       0.00000011      -0.00000007       0.00162939 
W       0.00000000      -0.00000001      15.90662767       74      -0.00000010      -0.00000001      -0.00162929 
W      -0.00000000       2.24954252      17.49722365       74       0.00000002      -0.00000003      -0.00190010 
W       2.24954253       2.24954252      15.90662767       74       0.00000006      -0.00000003      -0.00162949 
W       2.24954253      -0.00000001      17.49722366       74       0.00000002       0.00000006      -0.00190015 
W      -0.00000000      -0.00000001      19.08761623       74       0.00000004       0.00000012       0.01300358 
W       0.00000000       2.24954252      20.67878174       74       0.00000001       0.00000001       0.03854674 
W       2.24954252       2.24954252      19.08761622       74       0.00000002      -0.00000010       0.01300370 
W       2.24954253      -0.00000001      20.67878174       74      -0.00000008       0.00000002       0.03854680 
W      -0.00000000      -0.00000001      22.27240289       74       0.00000005      -0.00000006       0.08747835 
W       0.00000000       2.24954252      23.86838824       74       0.00000004       0.00000003       0.07971972 
W       2.24954252       2.24954252      22.27240289       74      -0.00000004      -0.00000002       0.08747835 
W       2.24954252      -0.00000001      23.86838824       74      -0.00000003       0.00000005       0.07971979 
W      -0.00000000      -0.00000001      25.47874838       74       0.00000002       0.00000002      -0.08168329 
W       0.00000000       2.24954251      27.05543942       74      -0.00000004       0.00000003      -0.03692894 
W       2.24954253       2.24954251      25.47874838       74      -0.00000002      -0.00000002      -0.08168333 
W       2.24954253      -0.00000001      27.05543943       74       0.00000002      -0.00000001      -0.03692908 
W       0.00000000      -0.00000001      28.69679522       74       0.00000001      -0.00000001      -0.07675263 
W      -0.00000000       2.24954253      30.10364916       74       0.00000002       0.00000013      -0.02308220 
W       2.24954253       2.24954252      28.69679522       74      -0.00000002      -0.00000012      -0.07675265 
W       2.24954253      -0.00000003      30.10364916       74       0.00000001      -0.00000003      -0.02308213 
40
Lattice="4.499085050680655 -1.6077143511638123e-15 1.2873732442709037e-15 -1.6077143511549184e-15 4.499085049812278 -1.941371443251758e-09 9.103103509556723e-15 -1.372756912348169e-08 41.813335476469426" Properties=species:S:1:pos:R:3:Z:I:1:forces:R:3 pbc="T T T"
W       0.00000000      -0.00000001       0.12603219       74      -0.00000000      -0.00000009      -0.01812081 
W      -0.00000000       2.24954252       1.52949917       74       0.00000004       0.00000007       0.07083244 
W       2.24954252       2.24954253       0.12603219       74      -0.00000005       0.00000000      -0.01812085 
W       2.24954252      -0.00000000       1.52949917       74       0.00000006       0.00000002       0.07083232 
W       0.00000000      -0.00000000       3.16754400       74      -0.00000004      -0.00000000       0.05268777 
W      -0.00000000       2.24954252       4.74362709       74       0.00000001      -0.00000002       0.05600583 
W       2.24954253       2.24954252       3.16754400       74      -0.00000003       0.00000001       0.05268778 
W       2.24954252      -0.00000000       4.74362709       74       0.00000005      -0.00000002       0.05600588 
W       0.00000000      -0.00000000       6.34948596       74      -0.00000009      -0.00000004      -0.02058785 
W       0.00000000       2.24954252       7.94594096       74      -0.00000003       0.00000006      -0.04539676 
W       2.24954252       2.24954252       6.34948596       74       0.00000010       0.00000007      -0.02058781 
W       2.24954252      -0.00000000       7.94594096       74      -0.00000000      -0.00000010      -0.04539677 
W       0.00000000      -0.00000000       9.54265881       74      -0.00000001      -0.00000005      -0.05884535 
W       0.00000000       2.24954252      11.13479751       74      -0.00000005      -0.00000005      -0.03068962 
W       2.24954252       2.24954252       9.54265881       74       0.00000005       0.00000010      -0.05884537 
W       2.24954252      -0.00000000      11.13479751       74       0.00000000       0.00000002      -0.03068964 
W      -0.00000000      -0.00000001      12.72556008       74       0.00000011       0.00000007      -0.00530946 
W      -0.00000000       2.24954252      14.31611084       74       0.00000012      -0.00000005      -0.00038381 
W       2.24954253       2.24954252      12.72556008       74      -0.00000004      -0.00000005      -0.00530952 
W       2.24954253      -0.00000001      14.31611084       74      -0.00000017       0.00000006      -0.00038382 
W      -0.00000000      -0.00000001      15.90655787       74       0.00000011       0.00000006       0.00038378 
W      -0.00000000       2.24954252      17.49710862       74      -0.00000000      -0.00000003       0.00530959 
W       2.24954253       2.24954252      15.90655786       74      -0.00000009      -0.00000006       0.00038385 
W       2.24954253      -0.00000001      17.49710862       74      -0.00000000      -0.00000001       0.00530958 