2
Lattice="2.9489582672058594 3.933290568455533e-18 -6.681303572456035e-35 -1.474479133602929 2.5538727741004137 -2.079132156130084e-34 -1.0263143427173069e-34 -4.395157559634856e-34 4.760115142977389" Properties=species:S:1:pos:R:3:Z:I:1:forces:R:3 stress="0.0001943228191186356 1.3552527156068805e-20 1.6829800374823443e-33 1.3552527156068805e-20 0.00019432281911863542 -1.7321221218011323e-33 1.6829800374823443e-33 -1.7321221218011323e-33 0.0002734486957281998" energy=-12.1405662697 Minim_Constant_Volume=T Minim_Hydrostatic_Strain=F pbc="T T T"
Ti      -0.00000000       0.00000000      -0.00000000       22      -0.00000000       0.00000000      -0.00000000 
Ti       0.00000000       1.70258185       2.38005757       22      -0.00000000       0.00000000      -0.00000000 
2
Lattice="2.9233451246910707 -1.879878566522295e-17 5.1252966250997914e-33 -1.4616725623455347 2.5316911420118555 1.0180517182382036e-32 8.278353572456434e-33 2.376231149832484e-32 4.722794415139269" Properties=species:S:1:pos:R:3:Z:I:1:forces:R:3 stress="-0.01613467545745004 -3.469446951953614e-18 -4.671762149064149e-33 -3.469446951953614e-18 -0.016134675457450027 2.5802403006472875e-34 -4.671762149064149e-33 2.5802403006472875e-34 -0.016137733529827215" energy=-12.1335707341 Minim_Constant_Volume=T Minim_Hydrostatic_Strain=F pbc="T T T"
Ti      -0.00000000       0.00000000      -0.00000000       22      -0.00000000      -0.00000000      -0.00000000 
Ti       0.00000000       1.68779409       2.36139721       22       0.00000000       0.00000000       0.00000000 
2
Lattice="2.898142853419589 -1.8636720607660013e-17 5.081111244864803e-33 -1.449071426709794 2.5098653348576856 1.0092750550400297e-32 8.206985566451213e-33 2.3557455692775193e-32 4.682079022008136" Properties=species:S:1:pos:R:3:Z:I:1:forces:R:3 stress="-0.035144303802619216 6.938893903907228e-18 2.617011574989905e-33 6.938893903907228e-18 -0.03514430380261919 -1.2026653776837441e-32 2.617011574989905e-33 -1.2026653776837441e-32 -0.03497224305245382" energy=-12.1109870019 Minim_Constant_Volume=T Minim_Hydrostatic_Strain=F pbc="T T T"
Ti      -0.00000000       0.00000000      -0.00000000       22       0.00000000      -0.00000000       0.00000000 
Ti       0.00000000       1.67324356       2.34103951       22      -0.00000000       0.00000000       0.00000000 
2
Lattice="2.8735623954261937 -4.768435280809622e-17 8.906993337702944e-33 -1.4367811977130962 2.4885780337987486 -8.189186914646244e-33 1.4396960281577748e-32 -6.952279780770185e-33 4.637191171907046" Properties=species:S:1:pos:R:3:Z:I:1:forces:R:3 stress="-0.05645517735008276 2.0816681711721685e-17 4.7843031816047915e-33 2.0816681711721685e-17 -0.05645517735008271 -4.4590368722341395e-33 4.7843031816047915e-33 -4.4590368722341395e-33 -0.05644801655358892" energy=-12.069903386 Minim_Constant_Volume=T Minim_Hydrostatic_Strain=F pbc="T T T"
Ti       0.00000000      -0.00000000      -0.00000000       22      -0.00000000       0.00000000      -0.00000000 
Ti       0.00000000       1.65905202       2.31859559       22      -0.00000000       0.00000000      -0.00000000 
2
Lattice="2.8471514400391764 -1.0310879495106942e-16 -4.728513265822067e-33 -1.4235757200195875 2.465705475495374 -3.585521520079329e-32 -7.611758499168446e-33 -7.120700778514927e-32 4.595958216153646" Properties=species:S:1:pos:R:3:Z:I:1:forces:R:3 stress="-0.07808724125265412 3.469446951953614e-17 8.586297798504212e-34 3.469446951953614e-17 -0.07808724125265407 5.156910606807878e-33 8.586297798504212e-34 5.156910606807878e-33 -0.07808403290960866" energy=-12.0097396258 Minim_Constant_Volume=T Minim_Hydrostatic_Strain=F pbc="T T T"
Ti       0.00000000       0.00000000      -0.00000000       22       0.00000000      -0.00000000      -0.00000000 
Ti       0.00000000       1.64380365       2.29797911       22      -0.00000000       0.00000000       0.00000000 
2
Lattice="2.821542748563898 -1.5653967616849142e-16 -1.566136087018713e-32 -1.4107713742819483 2.443527698120105 -1.0003065181408266e-31 -2.526813955153913e-32 -2.0109162079001255e-31 4.549768826675038" Properties=species:S:1:pos:R:3:Z:I:1:forces:R:3 stress="-0.10407433314323065 4.163336342344337e-17 4.4482602195582486e-33 4.163336342344337e-17 -0.10407433314323057 1.733281844489115e-32 4.4482602195582486e-33 1.733281844489115e-32 -0.10401424643676631" energy=-11.9283032484 Minim_Constant_Volume=T Minim_Hydrostatic_Strain=F pbc="T T T"
Ti       0.00000000      -0.00000000      -0.00000000       22      -0.00000000       0.00000000       0.00000000 
Ti       0.00000000       1.62901847       2.27488441       22       0.00000000      -0.00000000      -0.00000000 
2
Lattice="2.9744952478125146 1.9596692137596112e-17 -6.568545088542032e-35 -1.4872476239062566 2.5759884480417274 -4.759289834478049e-35 -1.0089389555193337e-34 -1.4009069046855545e-34 4.795697906511525" Properties=species:S:1:pos:R:3:Z:I:1:forces:R:3 stress="0.01505467687356082 -8.402445089867701e-69 -2.2324491376266487e-35 -8.402445089867701e-69 0.015054676873560812 1.1647192082845641e-34 -2.2324491376266487e-35 1.1647192082845641e-34 0.015098715938914297" energy=-12.1336211327 Minim_Constant_Volume=T Minim_Hydrostatic_Strain=F pbc="T T T"
Ti      -0.00000000       0.00000000      -0.00000000       22      -0.00000000       0.00000000       0.00000000 
Ti       0.00000000       1.71732563       2.39784895       22       0.00000000      -0.00000000       0.00000000 
2
Lattice="2.997598736779093 6.567541587946117e-17 6.961539886421389e-35 -1.4987993683895457 2.595996656402838 -2.3815425005723706e-34 1.1738151645994734e-34 -3.687042276169828e-34 4.837231835502053" Properties=species:S:1:pos:R:3:Z:I:1:forces:R:3 stress="0.02911665235965431 -1.3877787807814457e-17 -8.579988440228829e-35 -1.3877787807814457e-17 0.02911665235965427 -7.559503165729198e-35 -8.579988440228829e-35 -7.559503165729198e-35 0.029129569653328597" energy=-12.113827313 Minim_Constant_Volume=T Minim_Hydrostatic_Strain=F pbc="T T T"
Ti      -0.00000000       0.00000000      -0.00000000       22      -0.00000000       0.00000000      -0.00000000 
Ti       0.00000000       1.73066444       2.41861592       22       0.00000000      -0.00000000       0.00000000 
2
Lattice="3.021637438489371 6.620208801627999e-17 6.1064706655222816e-33 -1.510818719244685 2.6168147827579356 5.341332345554274e-33 9.859157734090331e-33 1.5652074963719083e-32 4.873920521415606" Properties=species:S:1:pos:R:3:Z:I:1:forces:R:3 stress="0.04178473887073002 -2.7755575615628914e-17 -5.907481469431648e-34 -2.7755575615628914e-17 0.04178473887072996 -2.7743772381772385e-33 -5.907481469431648e-34 -2.7743772381772385e-33 0.04178422701989755" energy=-12.0818914844 Minim_Constant_Volume=T Minim_Hydrostatic_Strain=F pbc="T T T"
Ti      -0.00000000       0.00000000      -0.00000000       22      -0.00000000       0.00000000       0.00000000 
Ti       0.00000000       1.74454319       2.43696026       22       0.00000000      -0.00000000      -0.00000000 
2
Lattice="3.0454603673951075 4.863798747466267e-17 9.886227935210058e-33 -1.522730183697553 2.637446044382854 1.1235686073922011e-32 1.5961662507694633e-32 3.0159628605031773e-32 4.9095472616235325" Properties=species:S:1:pos:R:3:Z:I:1:forces:R:3 stress="0.052932181926548624 -1.0408340855860843e-17 -1.0266064349694537e-33 -1.0408340855860843e-17 0.05293218192654852 -2.5809417212614178e-33 -1.0266064349694537e-33 -2.5809417212614178e-33 0.05293457748945988" energy=-12.0393372319 Minim_Constant_Volume=T Minim_Hydrostatic_Strain=F pbc="T T T"
Ti      -0.00000000       0.00000000      -0.00000000       22       0.00000000       0.00000000       0.00000000 
Ti       0.00000000       1.75829736       2.45477363       22       0.00000000       0.00000000       0.00000000 
2
Lattice="3.0677242705041325 1.3351313710834175e-16 3.063791023162622e-32 -1.5338621352520656 2.6567271500626655 2.4159358834759078e-32 4.940538463028015e-32 7.351262558977534e-32 4.948510922991354" Properties=species:S:1:pos:R:3:Z:I:1:forces:R:3 stress="0.062458848700410824 -4.163336342344337e-17 -4.5477428680092006e-33 -4.163336342344337e-17 0.06245884870041069 -1.0133183291229154e-32 -4.5477428680092006e-33 -1.0133183291229154e-32 0.06246414322795037" energy=-11.9874948036 Minim_Constant_Volume=T Minim_Hydrostatic_Strain=F pbc="T T T"
Ti      -0.00000000       0.00000000      -0.00000000       22      -0.00000000       0.00000000       0.00000000 
Ti       0.00000000       1.77115143       2.47425546       22      -0.00000000       0.00000000       0.00000000 
2
Lattice="3.0875639705607854 -6.122756414953155e-17 7.041909068531452e-32 -1.5437819852803922 2.673908834315191 7.639727573956908e-32 1.1344448194633974e-31 2.0766606075420612e-31 4.993667427097005" Properties=species:S:1:pos:R:3:Z:I:1:forces:R:3 stress="0.07014197214213592 -6.938893903907228e-18 -1.0112211130929451e-32 -6.938893903907228e-18 0.07014197214213577 -2.4586881103610178e-32 -1.0112211130929451e-32 -2.4586881103610178e-32 0.07015506752466175" energy=-11.9279377784 Minim_Constant_Volume=T Minim_Hydrostatic_Strain=F pbc="T T T"
Ti      -0.00000000       0.00000000      -0.00000000       22       0.00000000       0.00000000       0.00000000 
Ti       0.00000000       1.78260589       2.49683371       22      -0.00000000      -0.00000000      -0.00000000 
