2
Lattice="2.9485777390718675 5.251443102016176e-19 -1.1629041641710449e-34 -1.474288869535933 2.5535432270695217 6.106860867222293e-35 -1.8181576035376398e-34 8.703491047789084e-36 4.762102054396212" Properties=species:S:1:pos:R:3:Z:I:1:forces:R:3 stress="-4.5749101730762484e-05 3.049318610115481e-20 -3.655614992988155e-35 3.049318610115481e-20 -4.574910173076246e-05 5.693317422071866e-38 -3.655614992988155e-35 5.693317422071866e-38 5.143733893418473e-05" energy=-12.1394823673 Minim_Constant_Volume=T Minim_Hydrostatic_Strain=F pbc="T T T"
Ti      -0.00000000      -0.00000000       0.00000000       22      -0.00000000      -0.00000000      -0.00000000 
Ti       0.00000000       1.70236215       2.38105103       22       0.00000000       0.00000000      -0.00000000 
2
Lattice="2.9237986033636014 5.207311241572145e-19 -1.1531313982310928e-34 -1.4618993016818 2.532083866062341 6.055540282326324e-35 -1.8028782458323699e-34 8.630349009527365e-36 4.7220824980186205" Properties=species:S:1:pos:R:3:Z:I:1:forces:R:3 stress="-0.01660560403507049 -1.0408340855860843e-17 -7.695180231878781e-36 -1.0408340855860843e-17 -0.01660560403507048 -6.138589340995697e-35 -7.695180231878781e-36 -6.138589340995697e-35 -0.016705132178455342" energy=-12.1321472206 Minim_Constant_Volume=T Minim_Hydrostatic_Strain=F pbc="T T T"
Ti      -0.00000000      -0.00000000       0.00000000       22      -0.00000000      -0.00000000       0.00000000 
Ti       0.00000000       1.68805591       2.36104125       22       0.00000000      -0.00000000      -0.00000000 
2
Lattice="2.898592188697247 5.162418393514541e-19 -1.1431901156286703e-34 -1.4492960943486228 2.5102544706229537 6.003334751066569e-35 -1.787335418564746e-34 8.555945746731069e-36 4.681372864531259" Properties=species:S:1:pos:R:3:Z:I:1:forces:R:3 stress="-0.035344335547833165 3.469446951953614e-17 -9.198982867731944e-35 3.469446951953614e-17 -0.035344335547833144 9.210337949942989e-35 -9.198982867731944e-35 9.210337949942989e-35 -0.03535254249671728" energy=-12.1090809284 Minim_Constant_Volume=T Minim_Hydrostatic_Strain=F pbc="T T T"
Ti      -0.00000000      -0.00000000       0.00000000       22       0.00000000      -0.00000000      -0.00000000 
Ti       0.00000000       1.67350298       2.34068643       22      -0.00000000       0.00000000       0.00000000 
2
Lattice="2.872939585058899 5.1167308789409005e-19 -1.1330728583498257e-34 -1.4364697925294487 2.488038664198931 5.950205108518733e-35 -1.7715174614060918e-34 8.480225441595373e-36 4.639942613306055" Properties=species:S:1:pos:R:3:Z:I:1:forces:R:3 stress="-0.05605633026905366 2.7755575615628914e-17 -3.550626750587309e-35 2.7755575615628914e-17 -0.056056330269053614 -9.532096909421153e-35 -3.550626750587309e-35 -9.532096909421153e-35 -0.05614963405241785" energy=-12.0681574599 Minim_Constant_Volume=T Minim_Hydrostatic_Strain=F pbc="T T T"
Ti      -0.00000000      -0.00000000       0.00000000       22      -0.00000000       0.00000000       0.00000000 
Ti       0.00000000       1.65869244       2.31997131       22       0.00000000      -0.00000000      -0.00000000 
2
Lattice="2.845720461678759 -9.255834340662286e-17 9.440530716543236e-35 -1.4228602308393787 2.464466211882987 -3.5241706290796934e-35 1.5846941656574944e-34 2.5438078456366705e-35 4.601312238716425" Properties=species:S:1:pos:R:3:Z:I:1:forces:R:3 stress="-0.0786496359214013 1.3877787807814457e-17 5.005239240127497e-35 1.3877787807814457e-17 -0.07864963592140123 1.2995628204251792e-34 5.005239240127497e-35 1.2995628204251792e-34 -0.07862454965988186" energy=-12.0080071666 Minim_Constant_Volume=T Minim_Hydrostatic_Strain=F pbc="T T T"
Ti      -0.00000000      -0.00000000       0.00000000       22       0.00000000      -0.00000000       0.00000000 
Ti       0.00000000       1.64297747       2.30065612       22      -0.00000000       0.00000000      -0.00000000 
2
Lattice="2.818569033965277 -9.167523095614623e-17 9.051046646623587e-37 -1.4092845169826378 2.4409523857340942 -2.8001014687287138e-34 7.141907736451981e-36 -5.188879323579697e-34 4.560101539611158" Properties=species:S:1:pos:R:3:Z:I:1:forces:R:3 stress="-0.10444110729953267 1.3877787807814457e-17 3.7410192009318615e-35 1.3877787807814457e-17 -0.1044411072995326 -1.9325865622780074e-34 3.7410192009318615e-35 -1.9325865622780074e-34 -0.10443513295003541" energy=-11.9260069803 Minim_Constant_Volume=T Minim_Hydrostatic_Strain=F pbc="T T T"
Ti       0.00000000      -0.00000000       0.00000000       22      -0.00000000       0.00000000       0.00000000 
Ti       0.00000000       1.62730159       2.28005077       22      -0.00000000      -0.00000000       0.00000000 
2
Lattice="2.973935089574294 -7.91108889421148e-18 2.6491139326753734e-33 -1.4869675447871464 2.575503336777289 6.61344027640902e-36 4.2843148387522584e-33 2.4857844067351908e-33 4.798269249887905" Properties=species:S:1:pos:R:3:Z:I:1:forces:R:3 stress="0.01512251160872184 -1.734723475976807e-18 -1.2869800201471981e-33 -1.734723475976807e-18 0.015122511608721844 -9.932182896286605e-34 -1.2869800201471981e-33 -9.932182896286605e-34 0.015121406441554162" energy=-12.1326291212 Minim_Constant_Volume=T Minim_Hydrostatic_Strain=F pbc="T T T"
Ti      -0.00000000       0.00000000       0.00000000       22      -0.00000000       0.00000000       0.00000000 
Ti       0.00000000       1.71700222       2.39913462       22       0.00000000      -0.00000000      -0.00000000 
2
Lattice="2.998218617944325 -2.5210931464753224e-17 3.97555320346294e-33 -1.4991093089721619 2.5965334892392558 2.0991517295880316e-33 6.425817600978145e-33 7.620669995341899e-33 4.836002937201197" Properties=species:S:1:pos:R:3:Z:I:1:forces:R:3 stress="0.02928114053650862 -1.0408340855860843e-17 -2.5855459640791954e-33 -1.0408340855860843e-17 0.02928114053650861 -1.0603707074946213e-32 -2.5855459640791954e-33 -1.0603707074946213e-32 0.029279348343492124" energy=-12.1126616107 Minim_Constant_Volume=T Minim_Hydrostatic_Strain=F pbc="T T T"
Ti      -0.00000000       0.00000000       0.00000000       22       0.00000000      -0.00000000       0.00000000 
Ti       0.00000000       1.73102233       2.41800147       22       0.00000000      -0.00000000       0.00000000 
2
Lattice="3.0222801669451083 -2.541325629162341e-17 3.0318387305124266e-32 -1.5111400834725535 2.617371401928338 -1.7719954922922897e-32 4.8918733374309005e-32 -4.757030253637892e-33 4.872623504232371" Properties=species:S:1:pos:R:3:Z:I:1:forces:R:3 stress="0.04201040627155007 -1.734723475976807e-17 -5.4226814485101455e-33 -1.734723475976807e-17 0.04201040627155007 -1.2010143111044717e-32 -5.4226814485101455e-33 -1.2010143111044717e-32 0.04201098731059543" energy=-12.0805905278 Minim_Constant_Volume=T Minim_Hydrostatic_Strain=F pbc="T T T"
Ti      -0.00000000       0.00000000      -0.00000000       22      -0.00000000       0.00000000       0.00000000 
Ti      -0.00000000       1.74491427       2.43631175       22       0.00000000      -0.00000000      -0.00000000 
2
Lattice="3.0462712893863686 -1.0381581502814772e-16 4.2297324911745026e-32 -1.5231356446931836 2.6381483234277727 -9.968003101145854e-33 6.826788491065759e-32 2.0821224724805573e-32 4.907714794332298" Properties=species:S:1:pos:R:3:Z:I:1:forces:R:3 stress="0.05343962620297277 3.469446951953614e-18 -8.02207852037998e-33 3.469446951953614e-18 0.053439626202972726 -2.9477726585761977e-32 -8.02207852037998e-33 -2.9477726585761977e-32 0.053442785952399194" energy=-12.0377158749 Minim_Constant_Volume=T Minim_Hydrostatic_Strain=F pbc="T T T"
Ti      -0.00000000       0.00000000      -0.00000000       22       0.00000000      -0.00000000      -0.00000000 
Ti       0.00000000       1.75876555       2.45385740       22      -0.00000000       0.00000000       0.00000000 
2
Lattice="3.0696311981468716 -1.8608594025105438e-17 1.2865771672644887e-31 -1.5348155990734351 2.6583785978444556 2.583931376059451e-31 2.0743080536674078e-31 6.003872112153538e-31 4.943151904994587" Properties=species:S:1:pos:R:3:Z:I:1:forces:R:3 stress="0.06352294746783127 -4.163336342344337e-17 -3.731641155603623e-33 -4.163336342344337e-17 0.06352294746783119 -5.8158248723226935e-33 -3.731641155603623e-33 -5.8158248723226935e-33 0.06352510842802449" energy=-11.9851858385 Minim_Constant_Volume=T Minim_Hydrostatic_Strain=F pbc="T T T"
Ti      -0.00000000       0.00000000      -0.00000000       22      -0.00000000      -0.00000000       0.00000000 
Ti      -0.00000000       1.77225240       2.47157595       22       0.00000000       0.00000000      -0.00000000 
2
Lattice="3.091707109603812 -1.874242172215399e-17 1.958380763331694e-31 -1.5458535548019052 2.677496897977862 4.239961911354019e-31 3.155154654117082e-31 9.704906817238898e-31 4.981096789063604" Properties=species:S:1:pos:R:3:Z:I:1:forces:R:3 stress="0.07209238726394473 -2.0816681711721685e-17 -1.1382792852975053e-32 -2.0816681711721685e-17 0.07209238726394471 -5.923861551767355e-32 -1.1382792852975053e-32 -5.923861551767355e-32 0.07209489963039517" energy=-11.9242856271 Minim_Constant_Volume=T Minim_Hydrostatic_Strain=F pbc="T T T"
Ti      -0.00000000       0.00000000       0.00000000       22       0.00000000       0.00000000       0.00000000 
Ti      -0.00000000       1.78499793       2.49054839       22      -0.00000000      -0.00000000      -0.00000000 
