3
Lattice="4.00969761952195 -2.315 0.0 4.00969761952195 2.315 0.0 0.0 0.0 2.8243" Properties=species:S:1:pos:R:3:Z:I:1:map_shift:I:3:n_neighb:I:1:force:R:3:forces:R:3 virial="0.45599192349114925 -1.5785983631388945e-16 1.97758476261356e-16 -2.5326962749261384e-16 0.4559919234905291 -1.1449174941446927e-16 3.0986546151602783e-17 -6.705573596388353e-17 -0.767125004974164" energy=-18.1693824172 stress="-0.008696684416410565 -1.8370914742271896e-18 -2.267549485024036e-35 -1.8370914742271896e-18 -0.008696684416410565 -3.9275109167382734e-35 -2.267549485024036e-35 -3.9275109167382734e-35 0.014630618948521181" pbc="T T T"
Ti       1.33656587       0.00000000       0.00000000       22        0        0        0       70      -0.00000000       0.00000000      -0.00000000       0.00000000       0.00000000       0.00000000 
Ti       4.00969762       0.00000000       1.41215000       22       -1       -1       -1       70       0.00000000       0.00000000      -0.00000000       0.00000000       0.00000000      -0.00000000 
Ti       6.68282937       0.00000000       1.41215000       22       -1       -1       -1       70      -0.00000000      -0.00000000       0.00000000       0.00000000       0.00000000       0.00000000 
3
Lattice="4.01924505000975 -2.3205122115622 -8.240394900207057e-51 4.01924505000975 2.3205122115622 4.978741333894872e-35 1.7534313661033296e-35 3.037032213675872e-35 2.812986559504314" Properties=species:S:1:pos:R:3:Z:I:1:map_shift:I:3:n_neighb:I:1:force:R:3:forces:R:3 virial="0.346451878470704 2.1337098754514727e-16 -1.5612511283791264e-16 4.787836793695988e-16 0.34645187847003744 6.002143226879753e-16 -2.06274150710127e-16 1.350859651861748e-16 -0.6452833432120673" energy=-18.1741255859 stress="-0.006602629438098686 -1.958195854652946e-18 5.993068312675642e-38 -1.958195854652946e-18 -0.006602629438098685 -2.3311773116998098e-38 5.993068312675642e-38 -2.3311773116998098e-38 0.012297715967417125" pbc="T T T"
Ti       1.33974835      -0.00000000      -0.00000000       22        0        0        0       70       0.00000000      -0.00000000      -0.00000000       0.00000000       0.00000000       0.00000000 
Ti       4.01924505       0.00000000       1.40649328       22       -1       -1       -1       70      -0.00000000      -0.00000000      -0.00000000       0.00000000      -0.00000000      -0.00000000 
Ti       6.69874175       0.00000000       1.40649328       22       -1       -1       -1       70       0.00000000      -0.00000000      -0.00000000      -0.00000000       0.00000000       0.00000000 
3
Lattice="4.057638166290859 -2.3426784875821274 -4.0231415277103686e-37 4.057638166290859 2.3426784875821274 6.183645536901312e-35 2.1179712785096286e-35 3.717830931494765e-35 2.762592496915017" Properties=species:S:1:pos:R:3:Z:I:1:map_shift:I:3:n_neighb:I:1:force:R:3:forces:R:3 virial="0.04825963269116518 3.469446951953614e-18 -1.9116652705264414e-15 5.238864897449957e-16 0.04825963269051414 -3.7470027081099033e-16 -2.0061003878989123e-15 3.770133542661681e-16 0.08938215562914315" energy=-18.1829732618 stress="-0.0009188638844830038 -2.892218865624322e-19 -1.099584797531889e-33 -2.892218865624322e-19 -0.0009188638844830038 3.150992434238617e-19 -1.099584797531889e-33 3.150992434238617e-19 -0.001701837128579063" pbc="T T T"
Ti       1.35254606      -0.00000000      -0.00000000       22        0        0        0       70       0.00000000       0.00000000      -0.00000000       0.00000000       0.00000000       0.00000000 
Ti       4.05763817      -0.00000000       1.38129625       22       -1       -1       -1       70       0.00000000      -0.00000000       0.00000000      -0.00000000       0.00000000       0.00000000 
Ti       6.76273028       0.00000000       1.38129625       22       -1       -1       -1       70      -0.00000000       0.00000000       0.00000000       0.00000000       0.00000000       0.00000000 
3
Lattice="4.057858727094787 -2.3428058284216475 2.381932495003274e-19 4.057858727094787 2.3428058284216475 -2.3819324950032444e-19 1.0695466270414519e-33 -3.0063876044972462e-19 2.7654578020700806" Properties=species:S:1:pos:R:3:Z:I:1:map_shift:I:3:n_neighb:I:1:force:R:3:forces:R:3 virial="-0.014717790869946068 1.561244037725676e-16 -2.0990154059319366e-16 1.422480843562365e-16 -0.014717790869905989 -1.9075811504926985e-16 2.509477026290536e-16 -2.7183307850116537e-17 -0.020056937394267005" energy=-18.1830110032 stress="0.0002799061089209646 5.222796466836059e-20 -9.160648035010764e-35 5.222796466836059e-20 0.00027990610892096487 1.3097232686360627e-39 -9.160648035010764e-35 1.3097232686360627e-39 0.0003814471446507848" pbc="T T T"
Ti       1.35261958       0.00000000      -0.00000000       22        0        0        0       70       0.00000000       0.00000000       0.00000000       0.00000000       0.00000000       0.00000000 
Ti       4.05785873      -0.00000000       1.38272890       22       -1       -1       -1       70      -0.00000000      -0.00000000      -0.00000000       0.00000000      -0.00000000       0.00000000 
Ti       6.76309788      -0.00000000       1.38272890       22       -1       -1       -1       70       0.00000000       0.00000000       0.00000000       0.00000000      -0.00000000      -0.00000000 
