3
Lattice="4.057858727094787 -2.3428058284216475 2.381932495003274e-19 4.057858727094787 2.3428058284216475 -2.3819324950032444e-19 1.0695466270414519e-33 -3.0063876044972462e-19 2.7654578020700806" Properties=species:S:1:pos:R:3:Z:I:1:map_shift:I:3:n_neighb:I:1:force:R:3:forces:R:3 stress="0.0002799061089269158 2.3634686254796546e-20 1.1716084120578446e-32 2.3634686254796546e-20 0.0002799061089269158 -2.0292979816093032e-32 1.1716084120578446e-32 -2.0292979816093032e-32 0.000381447144653671" Minim_Constant_Volume=T pbc="T T T" virial="-0.014717790869946068 1.561244037725676e-16 -2.0990154059319366e-16 1.422480843562365e-16 -0.014717790869905989 -1.9075811504926985e-16 2.509477026290536e-16 -2.7183307850116537e-17 -0.020056937394267005" energy=-18.1830110032 Minim_Hydrostatic_Strain=F
Ti       1.35261958       0.00000000      -0.00000000       22        0        0        0       70       0.00000000       0.00000000       0.00000000       0.00000000       0.00000000       0.00000000 
Ti       4.05785873      -0.00000000       1.38272890       22       -1       -1       -1       70      -0.00000000      -0.00000000      -0.00000000      -0.00000000      -0.00000000       0.00000000 
Ti       6.76309788      -0.00000000       1.38272890       22       -1       -1       -1       70       0.00000000       0.00000000       0.00000000       0.00000000       0.00000000       0.00000000 
3
Lattice="4.0180758375637025 -2.319837166441735 1.4889092584173878e-19 4.0180758375637025 2.319837166441735 -1.4889092584173796e-19 3.3368246450170406e-34 -1.9385397878628082e-19 2.7499616916162712" Properties=species:S:1:pos:R:3:Z:I:1:map_shift:I:3:n_neighb:I:1:force:R:3:forces:R:3 stress="-0.029980670252768796 -4.118990780902451e-18 -2.8557320157922383e-31 -4.118990780902451e-18 -0.029980670252768824 1.3319151390851899e-20 -2.8557320157922383e-31 1.3319151390851899e-20 -0.029846298287864784" Minim_Constant_Volume=T pbc="T T T" virial="-0.014717790869946068 1.561244037725676e-16 -2.0990154059319366e-16 1.422480843562365e-16 -0.014717790869905989 -1.9075811504926985e-16 2.509477026290536e-16 -2.7183307850116537e-17 -0.020056937394267005" energy=-18.1634863861 Minim_Hydrostatic_Strain=F
Ti       1.33935861       0.00000000      -0.00000000       22        0        0        0       70       0.00000000       0.00000000       0.00000000       0.00000000       0.00000000       0.00000000 
Ti       4.01807584      -0.00000000       1.37498085       22        0        0       -1       70      -0.00000000      -0.00000000      -0.00000000      -0.00000000       0.00000000      -0.00000000 
Ti       6.69679306      -0.00000000       1.37498085       22       -1       -1       -1       70       0.00000000       0.00000000       0.00000000       0.00000000      -0.00000000       0.00000000 
3
Lattice="3.9801644688117643 -2.2979490274874568 2.1970055350265623e-19 3.9801644688117643 2.297949027487457 -2.1970055350265705e-19 -2.4069448992190236e-34 -2.7719666336342957e-19 2.730747649012241" Properties=species:S:1:pos:R:3:Z:I:1:map_shift:I:3:n_neighb:I:1:force:R:3:forces:R:3 stress="-0.05895149461067913 -1.8044876222647305e-17 -3.973377767438947e-36 -1.8044876222647305e-17 -0.058951494610679125 8.38087008422471e-32 -3.973377767438947e-36 8.38087008422471e-32 -0.05894136612396118" Minim_Constant_Volume=T pbc="T T T" virial="-0.014717790869946068 1.561244037725676e-16 -2.0990154059319366e-16 1.422480843562365e-16 -0.014717790869905989 -1.9075811504926985e-16 2.509477026290536e-16 -2.7183307850116537e-17 -0.020056937394267005" energy=-18.1048912747 Minim_Hydrostatic_Strain=F
Ti       1.32672149       0.00000000      -0.00000000       22        0        0        0       70       0.00000000       0.00000000       0.00000000       0.00000000       0.00000000       0.00000000 
Ti       3.98016447       0.00000000       1.36537382       22        0        0       -1       70      -0.00000000      -0.00000000      -0.00000000       0.00000000       0.00000000       0.00000000 
Ti       6.63360745       0.00000000       1.36537382       22       -1       -1       -1       70       0.00000000       0.00000000       0.00000000      -0.00000000       0.00000000      -0.00000000 
3
Lattice="3.9217001227831814 -2.2641946215698585 2.2032226279915313e-19 3.9217001227831814 2.2641946215698594 -2.203222627991531e-19 1.0625066998490135e-35 -2.731249417620137e-19 2.738475127039539" Properties=species:S:1:pos:R:3:Z:I:1:map_shift:I:3:n_neighb:I:1:force:R:3:forces:R:3 stress="-0.07658135352434818 9.738538311951635e-18 6.1214165438783805e-33 9.738538311951635e-18 -0.07658135352434815 1.4580462354116185e-17 6.1214165438783805e-33 1.4580462354116185e-17 -0.0767805152150303" Minim_Constant_Volume=T pbc="T T T" virial="-0.014717790869946068 1.561244037725676e-16 -2.0990154059319366e-16 1.422480843562365e-16 -0.014717790869905989 -1.9075811504926985e-16 2.509477026290536e-16 -2.7183307850116537e-17 -0.020056937394267005" energy=-18.0167344976 Minim_Hydrostatic_Strain=F
Ti       1.30723337      -0.00000000      -0.00000000       22        0        0        0       70       0.00000000       0.00000000       0.00000000       0.00000000       0.00000000       0.00000000 
Ti       3.92170012      -0.00000000       1.36923756       22        0        0        0       76      -0.00000000      -0.00000000      -0.00000000       0.00000000       0.00000000      -0.00000000 
Ti       6.53616687      -0.00000000       1.36923756       22       -1       -1        0       76       0.00000000       0.00000000       0.00000000      -0.00000000      -0.00000000       0.00000000 
3
Lattice="3.753590628849556 -2.167136559993948 2.582667789586755e-19 3.753590628849556 2.167136559993949 -2.5826677896088574e-19 -7.717293211421014e-31 -2.917047118143386e-19 2.898844398971467" Properties=species:S:1:pos:R:3:Z:I:1:map_shift:I:3:n_neighb:I:1:force:R:3:forces:R:3 stress="-0.00452498470532624 2.0403806258955992e-19 3.8619585969487573e-31 2.0403806258955992e-19 -0.004524984705326239 -7.412781031680433e-19 3.8619585969487573e-31 -7.412781031680433e-19 -0.004723294291541378" Minim_Constant_Volume=T pbc="T T T" virial="-0.014717790869946068 1.561244037725676e-16 -2.0990154059319366e-16 1.422480843562365e-16 -0.014717790869905989 -1.9075811504926985e-16 2.509477026290536e-16 -2.7183307850116537e-17 -0.020056937394267005" energy=-18.0800577829 Minim_Hydrostatic_Strain=F
Ti       1.25119688      -0.00000000      -0.00000000       22        0        0        0       94       0.00000000       0.00000000       0.00000000       0.00000000       0.00000000       0.00000000 
Ti       3.75359063      -0.00000000       1.44942220       22        0        0        0       88      -0.00000000      -0.00000000      -0.00000000       0.00000000       0.00000000      -0.00000000 
Ti       6.25598438       0.00000000       1.44942220       22       -1       -1        0       88       0.00000000       0.00000000       0.00000000       0.00000000      -0.00000000       0.00000000 
3
Lattice="3.7301292560724377 -2.1535911301055206 -1.1983453259878131e-18 3.7301292560724377 2.153591130105522 1.198345325985777e-18 -7.103440407659864e-31 1.6543410578393472e-18 2.863624333816373" Properties=species:S:1:pos:R:3:Z:I:1:map_shift:I:3:n_neighb:I:1:force:R:3:forces:R:3 stress="-0.022176966226274058 -6.1341733996999034e-18 -1.953177125767395e-31 -6.1341733996999034e-18 -0.02217696622627405 -3.522540393754347e-18 -1.953177125767395e-31 -3.522540393754347e-18 -0.02218393257926197" Minim_Constant_Volume=T pbc="T T T" virial="-0.014717790869946068 1.561244037725676e-16 -2.0990154059319366e-16 1.422480843562365e-16 -0.014717790869905989 -1.9075811504926985e-16 2.509477026290536e-16 -2.7183307850116537e-17 -0.020056937394267005" energy=-18.0654752764 Minim_Hydrostatic_Strain=F
Ti       1.24337642      -0.00000000      -0.00000000       22        0        0        0       94       0.00000000       0.00000000       0.00000000       0.00000000       0.00000000       0.00000000 
Ti       3.73012926       0.00000000       1.43181217       22        0        0        0       88      -0.00000000      -0.00000000      -0.00000000      -0.00000000      -0.00000000       0.00000000 
Ti       6.21688209      -0.00000000       1.43181217       22       -1       -1        0       88       0.00000000       0.00000000       0.00000000       0.00000000      -0.00000000      -0.00000000 
3
Lattice="4.098204877840754 -2.3660996894155972 2.393625577881285e-19 4.098204877840754 2.3660996894155972 -2.393625577881255e-19 1.1137757664084088e-33 -3.0362792728990923e-19 2.779033639060878" Properties=species:S:1:pos:R:3:Z:I:1:map_shift:I:3:n_neighb:I:1:force:R:3:forces:R:3 stress="0.028595088121581323 5.0558208127908405e-19 8.09937430156485e-36 5.0558208127908405e-19 0.028595088121581284 -2.84496344720518e-35 8.09937430156485e-36 -2.84496344720518e-35 0.0287511795543733" Minim_Constant_Volume=T pbc="T T T" virial="-0.014717790869946068 1.561244037725676e-16 -2.0990154059319366e-16 1.422480843562365e-16 -0.014717790869905989 -1.9075811504926985e-16 2.509477026290536e-16 -2.7183307850116537e-17 -0.020056937394267005" energy=-18.1635133971 Minim_Hydrostatic_Strain=F
Ti       1.36606829       0.00000000      -0.00000000       22        0        0        0       70       0.00000000       0.00000000       0.00000000       0.00000000       0.00000000       0.00000000 
Ti       4.09820488      -0.00000000       1.38951682       22       -1       -1       -1       70      -0.00000000      -0.00000000      -0.00000000       0.00000000       0.00000000      -0.00000000 
Ti       6.83034146      -0.00000000       1.38951682       22       -1       -1       -1       70       0.00000000       0.00000000       0.00000000      -0.00000000      -0.00000000       0.00000000 
3
Lattice="4.137260265086629 -2.3886483277553086 6.177119191089965e-19 4.137260265086629 2.388648327755309 -6.177119191089937e-19 1.0266733617741995e-33 -7.494547655588045e-19 2.7933268318669344" Properties=species:S:1:pos:R:3:Z:I:1:map_shift:I:3:n_neighb:I:1:force:R:3:forces:R:3 stress="0.04913415072166797 3.548197919462033e-17 -3.737359557856476e-35 3.548197919462033e-17 0.04913415072166793 -7.704561029198412e-20 -3.737359557856476e-35 -7.704561029198412e-20 0.04932726198738258" Minim_Constant_Volume=T pbc="T T T" virial="-0.014717790869946068 1.561244037725676e-16 -2.0990154059319366e-16 1.422480843562365e-16 -0.014717790869905989 -1.9075811504926985e-16 2.509477026290536e-16 -2.7183307850116537e-17 -0.020056937394267005" energy=-18.1111415037 Minim_Hydrostatic_Strain=F
Ti       1.37908676       0.00000000      -0.00000000       22        0        0        0       70       0.00000000       0.00000000       0.00000000       0.00000000       0.00000000       0.00000000 
Ti       4.13726027       0.00000000       1.39666342       22        0        0        0       70      -0.00000000      -0.00000000      -0.00000000      -0.00000000      -0.00000000       0.00000000 
Ti       6.89543378       0.00000000       1.39666342       22       -1       -1        0       70       0.00000000       0.00000000       0.00000000       0.00000000       0.00000000       0.00000000 
3
Lattice="4.172266591880625 -2.4088592399531628 -5.0116046201405606e-17 4.172266591880625 2.4088592399531636 5.0116046201405236e-17 -1.2921535577770043e-31 5.857798645971031e-17 2.8120614512996376" Properties=species:S:1:pos:R:3:Z:I:1:map_shift:I:3:n_neighb:I:1:force:R:3:forces:R:3 stress="0.054996319890699065 -4.458619518301358e-18 2.7428507933882785e-32 -4.458619518301358e-18 0.05499631989069898 1.2531229492398064e-17 2.7428507933882785e-32 1.2531229492398064e-17 0.05502928503375836" Minim_Constant_Volume=T pbc="T T T" virial="-0.014717790869946068 1.561244037725676e-16 -2.0990154059319366e-16 1.422480843562365e-16 -0.014717790869905989 -1.9075811504926985e-16 2.509477026290536e-16 -2.7183307850116537e-17 -0.020056937394267005" energy=-18.0406572946 Minim_Hydrostatic_Strain=F
Ti       1.39075553       0.00000000      -0.00000000       22        0        0        0       70       0.00000000       0.00000000       0.00000000       0.00000000       0.00000000       0.00000000 
Ti       4.17226659       0.00000000       1.40603073       22        0        0       -1       70      -0.00000000      -0.00000000      -0.00000000      -0.00000000       0.00000000       0.00000000 
Ti       6.95377765       0.00000000       1.40603073       22       -1       -1       -1       70       0.00000000       0.00000000       0.00000000       0.00000000      -0.00000000      -0.00000000 
3
Lattice="4.207313430295067 -2.4290935415459862 -5.043072206815637e-17 4.207313430295067 2.429093541545987 5.043072206815735e-17 3.233637404305023e-31 5.907003872456181e-17 2.829718228751485" Properties=species:S:1:pos:R:3:Z:I:1:map_shift:I:3:n_neighb:I:1:force:R:3:forces:R:3 stress="0.06135167068644826 5.078451093598424e-18 -1.7680718259686796e-32 5.078451093598424e-18 0.06135167068644813 -1.9444608543970625e-17 -1.7680718259686796e-32 -1.9444608543970625e-17 0.06138581348277624" Minim_Constant_Volume=T pbc="T T T" virial="-0.014717790869946068 1.561244037725676e-16 -2.0990154059319366e-16 1.422480843562365e-16 -0.014717790869905989 -1.9075811504926985e-16 2.509477026290536e-16 -2.7183307850116537e-17 -0.020056937394267005" energy=-17.9671299557 Minim_Hydrostatic_Strain=F
Ti       1.40243781       0.00000000       0.00000000       22        0        0        0       58       0.00000000       0.00000000       0.00000000       0.00000000       0.00000000       0.00000000 
Ti       4.20731343       0.00000000       1.41485911       22        0       -1        0       64      -0.00000000      -0.00000000      -0.00000000       0.00000000      -0.00000000      -0.00000000 
Ti       7.01218905       0.00000000       1.41485911       22       -1       -1        0       64       0.00000000       0.00000000       0.00000000       0.00000000       0.00000000       0.00000000 
3
Lattice="4.243630350356766 -2.450061125119747 -4.203993875348718e-16 4.243630350356766 2.450061125119748 4.2039938753487283e-16 3.100089024876983e-31 4.902555780697067e-16 2.8447016327041723" Properties=species:S:1:pos:R:3:Z:I:1:map_shift:I:3:n_neighb:I:1:force:R:3:forces:R:3 stress="0.07213798885705429 -5.228570690653145e-19 1.0963876076539013e-31 -5.228570690653145e-19 0.0721379888570541 -4.844655553895626e-17 1.0963876076539013e-31 -4.844655553895626e-17 0.0721681011102344" Minim_Constant_Volume=T pbc="T T T" virial="-0.014717790869946068 1.561244037725676e-16 -2.0990154059319366e-16 1.422480843562365e-16 -0.014717790869905989 -1.9075811504926985e-16 2.509477026290536e-16 -2.7183307850116537e-17 -0.020056937394267005" energy=-17.8787707186 Minim_Hydrostatic_Strain=F
Ti       1.41454345       0.00000000       0.00000000       22        0        0        0       58       0.00000000       0.00000000       0.00000000       0.00000000       0.00000000       0.00000000 
Ti       4.24363035       0.00000000       1.42235082       22        0        0        0       64      -0.00000000      -0.00000000      -0.00000000      -0.00000000       0.00000000      -0.00000000 
Ti       7.07271725       0.00000000       1.42235082       22       -1       -1        0       64       0.00000000       0.00000000       0.00000000       0.00000000      -0.00000000      -0.00000000 
3
Lattice="4.269233030990398 -2.4648428396755526 -1.0562167372091997e-15 4.269233030990398 2.4648428396755535 1.056216737209202e-15 5.652379453910299e-31 1.2265645848002505e-15 2.873139821776435" Properties=species:S:1:pos:R:3:Z:I:1:map_shift:I:3:n_neighb:I:1:force:R:3:forces:R:3 stress="0.07652337896681834 1.5381300665964656e-17 -9.533959426498029e-33 1.5381300665964656e-17 0.07652337896681806 1.3207415258419399e-17 -9.533959426498029e-33 1.3207415258419399e-17 0.0765567035807842" Minim_Constant_Volume=T pbc="T T T" virial="-0.014717790869946068 1.561244037725676e-16 -2.0990154059319366e-16 1.422480843562365e-16 -0.014717790869905989 -1.9075811504926985e-16 2.509477026290536e-16 -2.7183307850116537e-17 -0.020056937394267005" energy=-17.7803722118 Minim_Hydrostatic_Strain=F
Ti       1.42307768       0.00000000       0.00000000       22        0        0        0       58       0.00000000       0.00000000       0.00000000       0.00000000       0.00000000       0.00000000 
Ti       4.26923303       0.00000000       1.43656991       22        0        0        0       64      -0.00000000      -0.00000000      -0.00000000       0.00000000      -0.00000000       0.00000000 
Ti       7.11538838       0.00000000       1.43656991       22       -1       -1        0       64       0.00000000       0.00000000       0.00000000      -0.00000000       0.00000000      -0.00000000 
