8
Lattice="5.461030835904825 -1.3310801763031596e-33 0.0 -1.3310801763031596e-33 5.461030835904825 1.774773568404213e-33 0.0 1.774773568404213e-33 5.461030835904825" Properties=species:S:1:pos:R:3:Z:I:1:forces:R:3 stress="3.4929611589232895e-05 -5.510740220619484e-34 4.4773213976354435e-68 -5.510740220619484e-34 3.4929611589232895e-05 5.510740220619484e-34 4.4773213976354435e-68 5.510740220619484e-34 3.4929611589232895e-05" energy=-1305.42103785 Minim_Constant_Volume=T Minim_Hydrostatic_Strain=F pbc="T T T"
Si       0.00000000       0.00000000       0.00000000       14      -0.00000000       0.00000000       0.00000000 
Si       1.36525771       1.36525771       1.36525771       14       0.00000000      -0.00000000      -0.00000000 
Si       2.73051542       2.73051542       0.00000000       14       0.00000000      -0.00000000       0.00000000 
Si       4.09577313       4.09577313       1.36525771       14       0.00000000      -0.00000000      -0.00000000 
Si       2.73051542      -0.00000000       2.73051542       14       0.00000000       0.00000000       0.00000000 
Si       4.09577313       1.36525771       4.09577313       14       0.00000000      -0.00000000      -0.00000000 
Si      -0.00000000       2.73051542       2.73051542       14       0.00000000      -0.00000000       0.00000000 
Si       1.36525771       4.09577313       4.09577313       14      -0.00000000       0.00000000      -0.00000000 
8
Lattice="5.4151376507271785 -1.3198940997449132e-33 0.0 -1.3198940997449132e-33 5.4151376507271785 1.7598587996598844e-33 0.0 1.7598587996598844e-33 5.4151376507271785" Properties=species:S:1:pos:R:3:Z:I:1:forces:R:3 stress="-0.014698012074692025 1.4011357153255327e-34 -1.1383833510687684e-68 1.4011357153255327e-34 -0.01469801207469202 -1.4011357153255327e-34 -1.1383833510687684e-68 -1.4011357153255327e-34 -0.014698012074692025" energy=-1305.39186655 Minim_Constant_Volume=T Minim_Hydrostatic_Strain=F pbc="T T T"
Si       0.00000000       0.00000000       0.00000000       14       0.00000000       0.00000000       0.00000000 
Si       1.35378441       1.35378441       1.35378441       14       0.00000000      -0.00000000      -0.00000000 
Si       2.70756883       2.70756883       0.00000000       14      -0.00000000       0.00000000      -0.00000000 
Si       4.06135324       4.06135324       1.35378441       14       0.00000000       0.00000000      -0.00000000 
Si       2.70756883      -0.00000000       2.70756883       14      -0.00000000       0.00000000       0.00000000 
Si       4.06135324       1.35378441       4.06135324       14       0.00000000      -0.00000000       0.00000000 
Si      -0.00000000       2.70756883       2.70756883       14       0.00000000       0.00000000      -0.00000000 
Si       1.35378441       4.06135324       4.06135324       14      -0.00000000       0.00000000      -0.00000000 
8
Lattice="5.368453106537785 -1.3085151361064569e-33 0.0 -1.3085151361064569e-33 5.368453106537785 1.7446868481419426e-33 0.0 1.7446868481419426e-33 5.368453106537785" Properties=species:S:1:pos:R:3:Z:I:1:forces:R:3 stress="-0.031572031648098936 -2.85122094553241e-34 2.31653680590002e-68 -2.85122094553241e-34 -0.031572031648098936 2.85122094553241e-34 2.31653680590002e-68 2.85122094553241e-34 -0.031572031648098936" energy=-1305.29844398 Minim_Constant_Volume=T Minim_Hydrostatic_Strain=F pbc="T T T"
Si       0.00000000       0.00000000       0.00000000       14       0.00000000       0.00000000       0.00000000 
Si       1.34211328       1.34211328       1.34211328       14       0.00000000      -0.00000000      -0.00000000 
Si       2.68422655       2.68422655       0.00000000       14      -0.00000000      -0.00000000       0.00000000 
Si       4.02633983       4.02633983       1.34211328       14       0.00000000      -0.00000000      -0.00000000 
Si       2.68422655      -0.00000000       2.68422655       14      -0.00000000      -0.00000000       0.00000000 
Si       4.02633983       1.34211328       4.02633983       14       0.00000000       0.00000000      -0.00000000 
Si      -0.00000000       2.68422655       2.68422655       14      -0.00000000      -0.00000000       0.00000000 
Si       1.34211328       4.02633983       4.02633983       14       0.00000000      -0.00000000      -0.00000000 
8
Lattice="5.320942180292253 -1.2969347488163068e-33 0.0 -1.2969347488163068e-33 5.320942180292253 1.7292463317550758e-33 0.0 1.7292463317550758e-33 5.320942180292253" Properties=species:S:1:pos:R:3:Z:I:1:forces:R:3 stress="-0.050877227476850376 -6.845493209920942e-51 2.6326183860197645e-84 -6.845493209920942e-51 -0.05087722747685034 -1.159749458261005e-50 2.6326183860197645e-84 -1.159749458261005e-50 -0.050877227476850376" energy=-1305.13147229 Minim_Constant_Volume=T Minim_Hydrostatic_Strain=F pbc="T T T"
Si       0.00000000       0.00000000       0.00000000       14       0.00000000      -0.00000000       0.00000000 
Si       1.33023555       1.33023555       1.33023555       14       0.00000000      -0.00000000       0.00000000 
Si       2.66047109       2.66047109       0.00000000       14      -0.00000000       0.00000000       0.00000000 
Si       3.99070664       3.99070664       1.33023555       14       0.00000000      -0.00000000       0.00000000 
Si       2.66047109      -0.00000000       2.66047109       14      -0.00000000      -0.00000000       0.00000000 
Si       3.99070664       1.33023555       3.99070664       14      -0.00000000      -0.00000000       0.00000000 
Si      -0.00000000       2.66047109       2.66047109       14       0.00000000       0.00000000       0.00000000 
Si       1.33023555       3.99070664       3.99070664       14      -0.00000000       0.00000000       0.00000000 
8
Lattice="5.272567301070118 -1.2851437802796908e-33 0.0 -1.2851437802796908e-33 5.272567301070118 1.713525040372921e-33 0.0 1.713525040372921e-33 5.272567301070118" Properties=species:S:1:pos:R:3:Z:I:1:forces:R:3 stress="-0.07294317899218751 -1.257440222557254e-52 -3.3453496940754613e-85 -1.257440222557254e-52 -0.07294317899218751 1.676586963409672e-52 -3.3453496940754613e-85 1.676586963409672e-52 -0.07294317899218751" energy=-1304.88039665 Minim_Constant_Volume=T Minim_Hydrostatic_Strain=F pbc="T T T"
Si       0.00000000       0.00000000       0.00000000       14       0.00000000      -0.00000000      -0.00000000 
Si       1.31814183       1.31814183       1.31814183       14       0.00000000      -0.00000000      -0.00000000 
Si       2.63628365       2.63628365       0.00000000       14      -0.00000000       0.00000000      -0.00000000 
Si       3.95442548       3.95442548       1.31814183       14      -0.00000000      -0.00000000      -0.00000000 
Si       2.63628365      -0.00000000       2.63628365       14      -0.00000000      -0.00000000      -0.00000000 
Si       3.95442548       1.31814183       3.95442548       14       0.00000000      -0.00000000      -0.00000000 
Si      -0.00000000       2.63628365       2.63628365       14       0.00000000       0.00000000      -0.00000000 
Si       1.31814183       3.95442548       3.95442548       14      -0.00000000      -0.00000000      -0.00000000 
8
Lattice="5.223288088041953 -1.2731323880102418e-33 0.0 -1.2731323880102418e-33 5.223288088041953 1.6975098506803226e-33 0.0 1.6975098506803226e-33 5.223288088041953" Properties=species:S:1:pos:R:3:Z:I:1:forces:R:3 stress="-0.0981370774417368 2.1657639839217335e-51 -9.637744950555102e-85 2.1657639839217335e-51 -0.0981370774417368 -4.5569078025996276e-51 -9.637744950555102e-85 -4.5569078025996276e-51 -0.0981370774417368" energy=-1304.53323866 Minim_Constant_Volume=T Minim_Hydrostatic_Strain=F pbc="T T T"
Si       0.00000000       0.00000000       0.00000000       14      -0.00000000      -0.00000000       0.00000000 
Si       1.30582202       1.30582202       1.30582202       14      -0.00000000      -0.00000000       0.00000000 
Si       2.61164404       2.61164404       0.00000000       14      -0.00000000      -0.00000000      -0.00000000 
Si       3.91746607       3.91746607       1.30582202       14       0.00000000       0.00000000      -0.00000000 
Si       2.61164404      -0.00000000       2.61164404       14       0.00000000       0.00000000       0.00000000 
Si       3.91746607       1.30582202       3.91746607       14       0.00000000      -0.00000000      -0.00000000 
Si      -0.00000000       2.61164404       2.61164404       14       0.00000000      -0.00000000       0.00000000 
Si       1.30582202       3.91746607       3.91746607       14      -0.00000000      -0.00000000      -0.00000000 
8
Lattice="5.5061653689416055 -1.3420813378049337e-33 0.0 -1.3420813378049337e-33 5.5061653689416055 1.7894417837399117e-33 0.0 1.7894417837399117e-33 5.5061653689416055" Properties=species:S:1:pos:R:3:Z:I:1:forces:R:3 stress="0.012896688835419423 -2.3715853143621974e-34 4.404220226254085e-68 -2.3715853143621974e-34 0.012896688835419425 1.3551916082069699e-34 4.404220226254085e-68 1.3551916082069699e-34 0.012896688835419425" energy=-1305.39411971 Minim_Constant_Volume=T Minim_Hydrostatic_Strain=F pbc="T T T"
Si       0.00000000       0.00000000       0.00000000       14       0.00000000       0.00000000       0.00000000 
Si       1.37654134       1.37654134       1.37654134       14       0.00000000       0.00000000       0.00000000 
Si       2.75308268       2.75308268       0.00000000       14       0.00000000      -0.00000000      -0.00000000 
Si       4.12962403       4.12962403       1.37654134       14      -0.00000000      -0.00000000      -0.00000000 
Si       2.75308268      -0.00000000       2.75308268       14       0.00000000       0.00000000       0.00000000 
Si       4.12962403       1.37654134       4.12962403       14      -0.00000000       0.00000000      -0.00000000 
Si      -0.00000000       2.75308268       2.75308268       14       0.00000000      -0.00000000       0.00000000 
Si       1.37654134       4.12962403       4.12962403       14       0.00000000       0.00000000       0.00000000 
8
Lattice="5.550571846067239 -1.3529050418230043e-33 0.0 -1.3529050418230043e-33 5.550571846067239 1.8038733890973394e-33 0.0 1.8038733890973394e-33 5.550571846067239" Properties=species:S:1:pos:R:3:Z:I:1:forces:R:3 stress="0.024163499759629874 1.3335943532358868e-34 -1.083507894487108e-68 1.3335943532358868e-34 0.024163499759629874 -1.3335943532358868e-34 -1.083507894487108e-68 -1.3335943532358868e-34 0.024163499759629874" energy=-1305.31818418 Minim_Constant_Volume=T Minim_Hydrostatic_Strain=F pbc="T T T"
Si       0.00000000       0.00000000       0.00000000       14       0.00000000      -0.00000000       0.00000000 
Si       1.38764296       1.38764296       1.38764296       14      -0.00000000      -0.00000000      -0.00000000 
Si       2.77528592       2.77528592       0.00000000       14      -0.00000000      -0.00000000      -0.00000000 
Si       4.16292888       4.16292888       1.38764296       14       0.00000000      -0.00000000      -0.00000000 
Si       2.77528592      -0.00000000       2.77528592       14       0.00000000      -0.00000000       0.00000000 
Si       4.16292888       1.38764296       4.16292888       14       0.00000000      -0.00000000       0.00000000 
Si      -0.00000000       2.77528592       2.77528592       14       0.00000000       0.00000000      -0.00000000 
Si       1.38764296       4.16292888       4.16292888       14       0.00000000      -0.00000000      -0.00000000 
8
Lattice="5.594278935737086 -1.3635582760514096e-33 0.0 -1.3635582760514096e-33 5.594278935737086 1.8180777014018796e-33 0.0 1.8180777014018796e-33 5.594278935737086" Properties=species:S:1:pos:R:3:Z:I:1:forces:R:3 stress="0.03413773411617393 1.9962277272363926e-52 -2.0499393407047893e-85 1.9962277272363926e-52 0.03413773411617393 1.0702186580812455e-51 -2.0499393407047893e-85 1.0702186580812455e-51 0.03413773411617393" energy=-1305.19910319 Minim_Constant_Volume=T Minim_Hydrostatic_Strain=F pbc="T T T"
Si       0.00000000       0.00000000       0.00000000       14       0.00000000       0.00000000      -0.00000000 
Si       1.39856973       1.39856973       1.39856973       14       0.00000000       0.00000000       0.00000000 
Si       2.79713947       2.79713947       0.00000000       14      -0.00000000      -0.00000000       0.00000000 
Si       4.19570920       4.19570920       1.39856973       14       0.00000000      -0.00000000       0.00000000 
Si       2.79713947      -0.00000000       2.79713947       14      -0.00000000       0.00000000      -0.00000000 
Si       4.19570920       1.39856973       4.19570920       14      -0.00000000       0.00000000       0.00000000 
Si      -0.00000000       2.79713947       2.79713947       14       0.00000000      -0.00000000       0.00000000 
Si       1.39856973       4.19570920       4.19570920       14      -0.00000000       0.00000000       0.00000000 
8
Lattice="5.637313541798615 -1.3740475980759073e-33 0.0 -1.3740475980759073e-33 5.637313541798615 1.8320634641012098e-33 0.0 1.8320634641012098e-33 5.637313541798615" Properties=species:S:1:pos:R:3:Z:I:1:forces:R:3 stress="0.043052104026751865 -1.114061621122628e-50 2.9005658330024086e-84 -1.114061621122628e-50 0.04305210402675191 -1.3308118568719483e-50 2.9005658330024086e-84 -1.3308118568719483e-50 0.04305210402675186" energy=-1305.04162553 Minim_Constant_Volume=T Minim_Hydrostatic_Strain=F pbc="T T T"
Si       0.00000000       0.00000000       0.00000000       14      -0.00000000      -0.00000000      -0.00000000 
Si       1.40932839       1.40932839       1.40932839       14       0.00000000      -0.00000000       0.00000000 
Si       2.81865677       2.81865677       0.00000000       14       0.00000000      -0.00000000      -0.00000000 
Si       4.22798516       4.22798516       1.40932839       14      -0.00000000      -0.00000000      -0.00000000 
Si       2.81865677      -0.00000000       2.81865677       14       0.00000000      -0.00000000      -0.00000000 
Si       4.22798516       1.40932839       4.22798516       14       0.00000000       0.00000000      -0.00000000 
Si      -0.00000000       2.81865677       2.81865677       14      -0.00000000      -0.00000000      -0.00000000 
Si       1.40932839       4.22798516       4.22798516       14       0.00000000      -0.00000000       0.00000000 
8
Lattice="5.679700949476622 -1.3843791709566394e-33 0.0 -1.3843791709566394e-33 5.679700949476622 1.8458388946088526e-33 0.0 1.8458388946088526e-33 5.679700949476622" Properties=species:S:1:pos:R:3:Z:I:1:forces:R:3 stress="0.05074116622902046 -2.5472892413226824e-34 2.069600846627919e-68 -2.5472892413226824e-34 0.05074116622902046 2.5472892413226824e-34 2.069600846627919e-68 2.5472892413226824e-34 0.05074116622902046" energy=-1304.85013845 Minim_Constant_Volume=T Minim_Hydrostatic_Strain=F pbc="T T T"
Si       0.00000000       0.00000000       0.00000000       14      -0.00000000       0.00000000      -0.00000000 
Si       1.41992524       1.41992524       1.41992524       14      -0.00000000      -0.00000000      -0.00000000 
Si       2.83985047       2.83985047       0.00000000       14      -0.00000000      -0.00000000       0.00000000 
Si       4.25977571       4.25977571       1.41992524       14      -0.00000000       0.00000000      -0.00000000 
Si       2.83985047      -0.00000000       2.83985047       14       0.00000000       0.00000000      -0.00000000 
Si       4.25977571       1.41992524       4.25977571       14       0.00000000      -0.00000000      -0.00000000 
Si      -0.00000000       2.83985047       2.83985047       14       0.00000000      -0.00000000       0.00000000 
Si       1.41992524       4.25977571       4.25977571       14       0.00000000      -0.00000000      -0.00000000 
8
Lattice="5.721464956325714 -1.3945587951466948e-33 0.0 -1.3945587951466948e-33 5.721464956325714 1.85941172686226e-33 0.0 1.85941172686226e-33 5.721464956325714" Properties=species:S:1:pos:R:3:Z:I:1:forces:R:3 stress="0.057621111075822636 6.416679865489229e-52 -2.294434004915805e-68 6.416679865489229e-52 0.057621111075822636 9.413388520737803e-35 -2.294434004915805e-68 9.413388520737803e-35 0.057621111075822636" energy=-1304.62938592 Minim_Constant_Volume=T Minim_Hydrostatic_Strain=F pbc="T T T"
Si       0.00000000       0.00000000       0.00000000       14       0.00000000      -0.00000000      -0.00000000 
Si       1.43036624       1.43036624       1.43036624       14      -0.00000000       0.00000000      -0.00000000 
Si       2.86073248       2.86073248       0.00000000       14       0.00000000       0.00000000      -0.00000000 
Si       4.29109872       4.29109872       1.43036624       14       0.00000000       0.00000000       0.00000000 
Si       2.86073248      -0.00000000       2.86073248       14      -0.00000000      -0.00000000      -0.00000000 
Si       4.29109872       1.43036624       4.29109872       14      -0.00000000       0.00000000       0.00000000 
Si      -0.00000000       2.86073248       2.86073248       14      -0.00000000      -0.00000000      -0.00000000 
Si       1.43036624       4.29109872       4.29109872       14      -0.00000000       0.00000000       0.00000000 
